 Gaussian 09, Revision D.01,
 Gaussian 09:  ES64L-G09RevD.01 24-Apr-2013

 ----------------------------------------------------------------------
 # mp2=(full,semidirect)/cc-pvtz pop=(minimal,chelpg,dipole) density=mp
 2 int=ultrafine scf=conver=10 symmetry=none
 ----------------------------------------------------------------------

 ----
 BCN4
 ----
 Symbolic Z-matrix:
 Charge = -1 Multiplicity = 1

                          Input orientation:
 ---------------------------------------------------------------------
 Center     Atomic      Atomic             Coordinates (Angstroms)
 Number     Number       Type             X           Y           Z
 ---------------------------------------------------------------------
      1          5           0        0.000000    0.000000    0.000000
      2          6           0        0.919383    0.919383    0.919383
      3          7           0        1.586332    1.586332    1.586332
      4          6           0       -0.919383   -0.919383    0.919383
      5          7           0       -1.586332   -1.586332    1.586332
      6          6           0        0.919383   -0.919383   -0.919383
      7          7           0        1.586332   -1.586332   -1.586332
      8          6           0       -0.919383    0.919383   -0.919383
      9          7           0       -1.586332    1.586332   -1.586332
 ---------------------------------------------------------------------

 SCF Done:  E(RHF) =  -394.217623964     A.U. after   13 cycles
 E2 =    -0.1571064696D+01 EUMP2 =    -0.39578868866012D+03

 Alpha  occ. eigenvalues --  -15.44261 -15.44261 -15.44261 -15.44261 -11.13025
 Alpha  occ. eigenvalues --  -11.13025 -11.13025 -11.13025  -7.53438  -1.09321
 Alpha  occ. eigenvalues --   -1.08549  -1.08549  -1.08549  -0.78543  -0.56257
 Alpha  occ. eigenvalues --   -0.56257  -0.56257  -0.44282  -0.43034  -0.43034
 Alpha  occ. eigenvalues --   -0.43034  -0.36223  -0.36223  -0.34117  -0.34117
 Alpha  occ. eigenvalues --   -0.34117  -0.33372  -0.33372  -0.33372
 Alpha virt. eigenvalues --    0.27295   0.27295   0.27295   0.28844   0.29865
 Alpha virt. eigenvalues --    0.29865   0.34817   0.34817   0.34817   0.42067
 Alpha virt. eigenvalues --    0.42067   0.42067   0.49037   0.49037   0.49037

 Mulliken charges:
               1
     1  B    0.196416
     2  C   -0.178181
     3  N   -0.120923
     4  C   -0.178181
     5  N   -0.120923
     6  C   -0.178181
     7  N   -0.120923
     8  C   -0.178181
     9  N   -0.120923
 Sum of Mulliken charges =  -1.00000

 Dipole moment (field-independent basis, Debye):
    X=              0.0000    Y=              0.0000    Z=              0.0000  Tot=              0.0000
 Quadrupole moment (field-independent basis, Debye-Ang):
   XX=            -70.1026   YY=            -70.1026   ZZ=            -70.1026
   XY=              0.0000   XZ=              0.0000   YZ=              0.0000

 ESP charges:
               1
     1  B    0.036184
     2  C    0.251319
     3  N   -0.510365
     4  C    0.251319
     5  N   -0.510365
     6  C    0.251319
     7  N   -0.510365
     8  C    0.251319
     9  N   -0.510365
 Sum of ESP charges =  -1.00000

 Normal termination of Gaussian 09 at Mon Jan 18 13:14:42 2021.
