 Gaussian 09, Revision E.01,
 Gaussian 09:  ES64L-G09RevE.01 30-Nov-2015

 ----------------------------------------------------------------------
 # freq rb3lyp/6-311+g(d,p) empiricaldispersion=gd3bj int=ultrafine scf
 =conver=10 symmetry=none
 ----------------------------------------------------------------------

 -------------------
 Title Card Required
 -------------------
 Symbolic Z-matrix:
 Charge =  1 Multiplicity = 1

                          Input orientation:
 ---------------------------------------------------------------------
 Center     Atomic      Atomic             Coordinates (Angstroms)
 Number     Number       Type             X           Y           Z
 ---------------------------------------------------------------------
      1          6           0       -5.118893    0.049144   -0.009034
      2          1           0       -5.450377    1.088824   -0.030077
      3          1           0       -5.452631   -0.449822   -0.920576
      4          6           0       -2.783493    0.804910    1.622360
      5          1           0       -3.254809    0.326296    2.482642
      6          1           0       -1.699995    0.735650    1.725877
      7          6           0       -2.787381   -1.746863    0.148567
      8          1           0       -1.703706   -1.804522    0.257229
      9          1           0       -3.257495   -2.251298    0.994636
     10          6           0       -2.590770    0.816802   -1.344544
     11          1           0       -2.991180    1.836113   -1.352546
     12          1           0       -2.989778    0.312344   -2.230935
     13          6           0       -1.054006    0.832605   -1.369418
     14          1           0       -0.668843   -0.192012   -1.352005
     15          1           0       -0.670410    1.332873   -0.474389
     16          6           0        1.011389    1.579933   -2.665168
     17          1           0        1.393825    0.553027   -2.639803
     18          1           0        1.392796    2.073924   -1.764097
     19          6           0        1.543632    2.295612   -3.907538
     20          1           0        1.203916    3.334597   -3.941254
     21          1           0        1.204512    1.803107   -4.823222
     22         15           0       -3.313282   -0.016158    0.099363
     23          1           0       -3.073879    1.856720    1.594918
     24          1           0       -5.562507   -0.449907    0.854375
     25          1           0       -3.081644   -2.248446   -0.775124
     26          1           0        2.635302    2.302659   -3.919028
     27          6           0       -0.518554    1.549331   -2.613868
     28          1           0       -0.905787    2.574762   -2.635678
     29          1           0       -0.904664    1.052777   -3.511802
 ---------------------------------------------------------------------

 SCF Done:  E(RB3LYP) =  -658.229263307     A.U. after   15 cycles

 Alpha  occ. eigenvalues --  -77.28751 -10.35146 -10.35138 -10.35118 -10.35118
 Alpha  occ. eigenvalues --  -10.32015 -10.28701 -10.26900 -10.24668  -6.78265
 Alpha  occ. eigenvalues --   -4.94311  -4.94308  -4.94270  -0.99334  -0.93881
 Alpha  occ. eigenvalues --   -0.88617  -0.88617  -0.88320  -0.81806  -0.74658
 Alpha  occ. eigenvalues --   -0.72001  -0.69182  -0.64041  -0.63139  -0.61982
 Alpha  occ. eigenvalues --   -0.61409  -0.59150  -0.58653  -0.57472  -0.56625
 Alpha  occ. eigenvalues --   -0.56069  -0.55510  -0.53676  -0.53168  -0.51541
 Alpha  occ. eigenvalues --   -0.51286  -0.48901  -0.47109  -0.44635  -0.43667
 Alpha  occ. eigenvalues --   -0.43308
 Alpha virt. eigenvalues --   -0.14622  -0.12073  -0.11852  -0.11425  -0.10755
 Alpha virt. eigenvalues --   -0.10704  -0.10047  -0.08732  -0.08010  -0.07325
 Alpha virt. eigenvalues --   -0.06978  -0.06505  -0.06040  -0.05633  -0.05126

 Mulliken charges:
               1
     1  C   -0.571060
     2  H    0.225868
     3  H    0.225875
     4  C   -0.568686
     5  H    0.227454
     6  H    0.226039
     7  C   -0.568934
     8  H    0.226036
     9  H    0.227499
    10  C   -0.086550
    11  H    0.230760
    12  H    0.230801
    13  C   -0.321687
    14  H    0.160433
    15  H    0.160589
    16  C   -0.211959
    17  H    0.143282
    18  H    0.143286
    19  C   -0.585084
    20  H    0.141021
    21  H    0.140997
    22  P    0.278092
    23  H    0.231813
    24  H    0.224769
    25  H    0.231740
    26  H    0.157322
    27  C   -0.229408
    28  H    0.154855
    29  H    0.154836
 Sum of Mulliken charges =   1.00000

 Dipole moment (field-independent basis, Debye):
    X=            -14.3939    Y=              0.5260    Z=             -0.5681  Tot=             14.4147
 Quadrupole moment (field-independent basis, Debye-Ang):
   XX=             -8.2949   YY=            -56.9561   ZZ=            -54.6800
   XY=              1.6113   XZ=             -3.8202   YZ=             -2.0270

  Exact polarizability: 123.212   8.149 105.739 -14.116  -7.155 114.015
 Approx polarizability: 157.250   1.411 153.425  -2.440  -1.569 155.241

                      1                      2                      3
                      A                      A                      A
 Frequencies --     38.2426                48.1984                79.7425
 Red. masses --      1.6530                 2.9031                 3.0848
 Frc consts  --      0.0014                 0.0040                 0.0116
 IR Inten    --      0.0325                 0.0259                 0.1428

                      4                      5                      6
                      A                      A                      A
 Frequencies --    112.5377               125.5879               165.3361
 Red. masses --      1.8662                 2.0044                 1.0517
 Frc consts  --      0.0139                 0.0186                 0.0169
 IR Inten    --      0.2553                 0.0492                 0.0755

                      7                      8                      9
                      A                      A                      A
 Frequencies --    176.2645               189.8482               191.9688
 Red. masses --      2.9822                 1.0652                 1.0509
 Frc consts  --      0.0546                 0.0226                 0.0228
 IR Inten    --      0.9832                 0.1156                 0.0269

                     10                     11                     12
                      A                      A                      A
 Frequencies --    214.2109               228.6531               245.1642
 Red. masses --      2.5698                 2.2239                 1.1197
 Frc consts  --      0.0695                 0.0685                 0.0397
 IR Inten    --      0.1449                 0.0204                 0.0006

                     13                     14                     15
                      A                      A                      A
 Frequencies --    251.1994               273.9319               311.9837
 Red. masses --      2.5323                 2.3675                 3.1247
 Frc consts  --      0.0941                 0.1047                 0.1792
 IR Inten    --      1.2294                 2.1731                 3.8317

                     16                     17                     18
                      A                      A                      A
 Frequencies --    361.8181               452.9156               636.4116
 Red. masses --      3.0803                 3.0492                 3.8036
 Frc consts  --      0.2376                 0.3685                 0.9077
 IR Inten    --      2.7375                 0.4903                 0.4913

                     19                     20                     21
                      A                      A                      A
 Frequencies --    718.4991               744.4461               756.2520
 Red. masses --      1.2140                 1.1506                 3.6198
 Frc consts  --      0.3692                 0.3757                 1.2197
 IR Inten    --      2.1727                 3.7741                 4.4481

                     22                     23                     24
                      A                      A                      A
 Frequencies --    764.2172               770.1730               813.4556
 Red. masses --      2.5390                 2.9073                 1.1941
 Frc consts  --      0.8737                 1.0160                 0.4656
 IR Inten    --      4.8426                 4.2432                 0.0833

                     25                     26                     27
                      A                      A                      A
 Frequencies --    818.5076               882.6346               885.6163
 Red. masses --      1.1738                 1.4507                 1.2586
 Frc consts  --      0.4633                 0.6659                 0.5816
 IR Inten    --      0.0037                 8.2333                 9.7374

                     28                     29                     30
                      A                      A                      A
 Frequencies --    912.1499               968.2453               985.3337
 Red. masses --      1.8748                 1.2713                 1.4871
 Frc consts  --      0.9191                 0.7022                 0.8507
 IR Inten    --      0.0484                 0.6158                33.0723

                     31                     32                     33
                      A                      A                      A
 Frequencies --    988.4658              1003.5876              1010.3404
 Red. masses --      1.4286                 1.7929                 2.7805
 Frc consts  --      0.8224                 1.0639                 1.6723
 IR Inten    --     31.0447               100.5354                15.5184

                     34                     35                     36
                      A                      A                      A
 Frequencies --   1034.1505              1064.2990              1100.1329
 Red. masses --      3.1768                 2.5379                 1.2256
 Frc consts  --      2.0018                 1.6938                 0.8740
 IR Inten    --      0.1653                 0.7741                14.7128

                     37                     38                     39
                      A                      A                      A
 Frequencies --   1125.0420              1223.1022              1246.0349
 Red. masses --      2.2001                 1.5579                 1.3082
 Frc consts  --      1.6407                 1.3731                 1.1967
 IR Inten    --     15.7519                 0.6740                 3.9268

                     40                     41                     42
                      A                      A                      A
 Frequencies --   1289.3941              1315.4271              1337.3182
 Red. masses --      1.2389                 1.3320                 1.1073
 Frc consts  --      1.2136                 1.3580                 1.1668
 IR Inten    --      0.2599                 4.2706                 2.6074

                     43                     44                     45
                      A                      A                      A
 Frequencies --   1339.9908              1348.6104              1350.8894
 Red. masses --      1.0841                 1.2146                 1.1803
 Frc consts  --      1.1469                 1.3015                 1.2691
 IR Inten    --      1.6088                22.8334                22.2037

                     46                     47                     48
                      A                      A                      A
 Frequencies --   1370.3997              1375.5319              1399.6160
 Red. masses --      1.1952                 1.3676                 1.5163
 Frc consts  --      1.3225                 1.5245                 1.7501
 IR Inten    --      7.5108                 1.3402                 0.3737

                     49                     50                     51
                      A                      A                      A
 Frequencies --   1421.8809              1446.0003              1446.4429
 Red. masses --      1.2276                 1.0485                 1.0649
 Frc consts  --      1.4623                 1.2917                 1.3127
 IR Inten    --      2.9333                 0.0603                 0.1459

                     52                     53                     54
                      A                      A                      A
 Frequencies --   1451.4372              1453.6630              1465.0617
 Red. masses --      1.0447                 1.0533                 1.0423
 Frc consts  --      1.2967                 1.3114                 1.3181
 IR Inten    --      0.1460                 0.3811                12.6341

                     55                     56                     57
                      A                      A                      A
 Frequencies --   1468.2214              1472.8842              1489.0619
 Red. masses --      1.0490                 1.0407                 1.0687
 Frc consts  --      1.3324                 1.3302                 1.3962
 IR Inten    --     21.3320                22.6327                 5.9828

                     58                     59                     60
                      A                      A                      A
 Frequencies --   1491.7524              1502.0282              1502.3047
 Red. masses --      1.0623                 1.0386                 1.0745
 Frc consts  --      1.3928                 1.3805                 1.4287
 IR Inten    --      0.4759                10.6756                 3.5904

                     61                     62                     63
                      A                      A                      A
 Frequencies --   1513.6072              3007.5480              3014.5760
 Red. masses --      1.0956                 1.0579                 1.0586
 Frc consts  --      1.4788                 5.6379                 5.6681
 IR Inten    --     12.1989                 0.4965                19.9763

                     64                     65                     66
                      A                      A                      A
 Frequencies --   3026.0770              3029.6965              3030.0557
 Red. masses --      1.0574                 1.0375                 1.1013
 Frc consts  --      5.7052                 5.6112                 5.9576
 IR Inten    --     18.9490                36.6319                 0.4206

                     67                     68                     69
                      A                      A                      A
 Frequencies --   3036.6237              3047.8390              3048.3093
 Red. masses --      1.0581                 1.0945                 1.0328
 Frc consts  --      5.7485                 5.9903                 5.6545
 IR Inten    --     16.6379                 1.9731                 2.5747

                     70                     71                     72
                      A                      A                      A
 Frequencies --   3050.5723              3051.3922              3066.5765
 Red. masses --      1.0417                 1.0331                 1.1055
 Frc consts  --      5.7113                 5.6675                 6.1250
 IR Inten    --      8.8105                 1.0670                21.0204

                     73                     74                     75
                      A                      A                      A
 Frequencies --   3085.1548              3091.4506              3104.1678
 Red. masses --      1.1044                 1.1029                 1.1009
 Frc consts  --      6.1937                 6.2102                 6.2500
 IR Inten    --      6.1445                54.0490                23.2791

                     76                     77                     78
                      A                      A                      A
 Frequencies --   3133.9712              3134.1759              3135.7142
 Red. masses --      1.1043                 1.1037                 1.1035
 Frc consts  --      6.3902                 6.3876                 6.3929
 IR Inten    --      0.0078                 0.0225                 0.7543

                     79                     80                     81
                      A                      A                      A
 Frequencies --   3136.2391              3139.8351              3141.3805
 Red. masses --      1.1038                 1.1036                 1.1034
 Frc consts  --      6.3967                 6.4100                 6.4156
 IR Inten    --      1.2038                 0.2247                 0.7469

 - Thermochemistry -
 -------------------
 Temperature   298.150 Kelvin.  Pressure   1.00000 Atm.
 Atom     1 has atomic number  6 and mass  12.00000

 Molecular mass:   147.13026 amu.
 Principal axes and moments of inertia in atomic units:
                           1         2         3
     Eigenvalues --   618.804453914.730843950.61005
           X            0.74293   0.66937  -0.00083
           Y            0.33457  -0.37026   0.86658
           Z           -0.57976   0.64409   0.49903
 This molecule is an asymmetric top.
 Rotational symmetry number  1.
 Warning -- assumption of classical behavior for rotation
           may cause significant error
 Rotational temperatures (Kelvin)      0.13997     0.02213     0.02192
 Rotational constants (GHZ):           2.91650     0.46101     0.45683
 Zero-point vibrational energy     697910.8 (Joules/Mol)
                                  166.80469 (Kcal/Mol)
 Warning -- explicit consideration of  17 degrees of freedom as
           vibrations may cause significant error
 Vibrational temperatures:     55.02    69.35   114.73   161.92   180.69
          (Kelvin)            237.88   253.60   273.15   276.20   308.20
                              328.98   352.74   361.42   394.13   448.87
                              520.57   651.64   915.65  1033.76  1071.09
                             1088.08  1099.54  1108.11  1170.38  1177.65
                             1269.91  1274.20  1312.38  1393.09  1417.67
                             1422.18  1443.94  1453.65  1487.91  1531.29
                             1582.84  1618.68  1759.77  1792.76  1855.15
                             1892.60  1924.10  1927.95  1940.35  1943.63
                             1971.70  1979.08  2013.73  2045.77  2080.47
                             2081.11  2088.29  2091.49  2107.89  2112.44
                             2119.15  2142.43  2146.30  2161.08  2161.48
                             2177.74  4327.19  4337.30  4353.84  4359.05
                             4359.57  4369.02  4385.16  4385.83  4389.09
                             4390.27  4412.11  4438.84  4447.90  4466.20
                             4509.08  4509.37  4511.59  4512.34  4517.52
                             4519.74

 Zero-point correction=                           0.265820 (Hartree/Particle)
 Thermal correction to Energy=                    0.279802
 Thermal correction to Enthalpy=                  0.280746
 Thermal correction to Gibbs Free Energy=         0.225128
 Sum of electronic and zero-point Energies=           -657.963443
 Sum of electronic and thermal Energies=              -657.949461
 Sum of electronic and thermal Enthalpies=            -657.948517
 Sum of electronic and thermal Free Energies=         -658.004136

                     E (Thermal)             CV                S
                      KCal/Mol        Cal/Mol-Kelvin    Cal/Mol-Kelvin
 Total                  175.579             49.773            117.059
 Electronic               0.000              0.000              0.000
 Translational            0.889              2.981             40.869
 Rotational               0.889              2.981             30.638
 Vibrational            173.801             43.812             45.552
 Vibration     1          0.594              1.982              5.348
 Vibration     2          0.595              1.978              4.890
 Vibration     3          0.600              1.963              3.897
 Vibration     4          0.607              1.939              3.225
 Vibration     5          0.611              1.927              3.013
 Vibration     6          0.624              1.885              2.488
 Vibration     7          0.628              1.872              2.368
 Vibration     8          0.633              1.854              2.229
 Vibration     9          0.634              1.851              2.209
 Vibration    10          0.644              1.819              2.007
 Vibration    11          0.651              1.797              1.889
 Vibration    12          0.660              1.771              1.765
 Vibration    13          0.663              1.761              1.722
 Vibration    14          0.676              1.721              1.571
 Vibration    15          0.700              1.651              1.352
 Vibration    16          0.736              1.551              1.114
 Vibration    17          0.811              1.354              0.787

 Optimization completed.
    -- Stationary point found.
 Normal termination of Gaussian 09 at Sat Nov 28 12:07:25 2020.
