 Gaussian 09, Revision E.01,
 Gaussian 09:  ES64L-G09RevE.01 30-Nov-2015

 ----------------------------------------------------------------------
 # freq rb3lyp/6-311+g(d,p) empiricaldispersion=gd3bj int=ultrafine scf
 =conver=10 symmetry=none
 ----------------------------------------------------------------------

 -------------------
 Title Card Required
 -------------------
 Symbolic Z-matrix:
 Charge =  1 Multiplicity = 1

                          Input orientation:
 ---------------------------------------------------------------------
 Center     Atomic      Atomic             Coordinates (Angstroms)
 Number     Number       Type             X           Y           Z
 ---------------------------------------------------------------------
      1          6           0       -5.036409    0.135972   -0.164056
      2          1           0       -5.329631    1.186356   -0.207767
      3          1           0       -5.328876   -0.355022   -1.093879
      4          6           0       -2.780912    0.817393    1.609053
      5          1           0       -3.324785    0.362518    2.438991
      6          1           0       -1.709807    0.706747    1.783260
      7          6           0       -2.779352   -1.737682    0.136630
      8          1           0       -1.708603   -1.832125    0.322264
      9          1           0       -3.324730   -2.228509    0.944818
     10          6           0       -2.430130    0.818340   -1.344805
     11          1           0       -2.778404    1.855177   -1.375301
     12          1           0       -2.783997    0.330826   -2.258224
     13          6           0       -0.899459    0.794337   -1.312663
     14          1           0       -0.525547   -0.241127   -1.303585
     15          1           0       -0.519872    1.294773   -0.408426
     16          6           0        0.941885    1.542637   -2.610010
     17          1           0        1.353582    0.524816   -2.632942
     18          1           0        1.360644    2.060027   -1.736545
     19          6           0        1.255727    2.287953   -3.888877
     20          1           0        0.845409    3.299027   -3.858062
     21          1           0        0.838101    1.767215   -4.752588
     22         15           0       -3.245780    0.009006    0.058239
     23          8           0       -0.486424    1.466437   -2.468283
     24          1           0       -3.027124    1.879596    1.559193
     25          1           0       -5.548604   -0.344600    0.671443
     26          1           0       -3.022915   -2.226983   -0.808171
     27          1           0        2.337815    2.359394   -4.020053
 ---------------------------------------------------------------------

 SCF Done:  E(RB3LYP) =  -694.126724978     A.U. after   15 cycles

 Alpha  occ. eigenvalues --  -77.29289 -19.25179 -10.37208 -10.35494 -10.35492
 Alpha  occ. eigenvalues --  -10.35436 -10.35266 -10.32627 -10.25389  -6.78794
 Alpha  occ. eigenvalues --   -4.94835  -4.94834  -4.94810  -1.16761  -0.99515
 Alpha  occ. eigenvalues --   -0.92112  -0.88989  -0.88955  -0.85651  -0.78354
 Alpha  occ. eigenvalues --   -0.72990  -0.71614  -0.64861  -0.64257  -0.62606
 Alpha  occ. eigenvalues --   -0.62052  -0.61236  -0.59542  -0.59243  -0.57796
 Alpha  occ. eigenvalues --   -0.57372  -0.57339  -0.54310  -0.54208  -0.53042
 Alpha  occ. eigenvalues --   -0.52419  -0.49021  -0.47864  -0.46031  -0.44727
 Alpha  occ. eigenvalues --   -0.38961
 Alpha virt. eigenvalues --   -0.14821  -0.12456  -0.12064  -0.11491  -0.10780
 Alpha virt. eigenvalues --   -0.10723  -0.10322  -0.09215  -0.08073  -0.07350
 Alpha virt. eigenvalues --   -0.07193  -0.06447  -0.06072  -0.05709  -0.04963

 Mulliken charges:
               1
     1  C   -0.498679
     2  H    0.227357
     3  H    0.227326
     4  C   -0.585856
     5  H    0.229139
     6  H    0.225351
     7  C   -0.585496
     8  H    0.225466
     9  H    0.229062
    10  C   -0.055187
    11  H    0.236333
    12  H    0.236032
    13  C   -0.394533
    14  H    0.144070
    15  H    0.143656
    16  C   -0.086555
    17  H    0.142767
    18  H    0.142644
    19  C   -0.517645
    20  H    0.153930
    21  H    0.153957
    22  P    0.323108
    23  O   -0.174173
    24  H    0.235908
    25  H    0.224783
    26  H    0.236013
    27  H    0.161223
 Sum of Mulliken charges =   1.00000

 Dipole moment (field-independent basis, Debye):
    X=            -13.4436    Y=              0.1326    Z=              0.1084  Tot=             13.4447
 Quadrupole moment (field-independent basis, Debye-Ang):
   XX=             -5.8335   YY=            -56.2932   ZZ=            -55.7375
   XY=              3.3654   XZ=             -6.8281   YZ=             -0.4284

  Exact polarizability: 114.622   7.195  99.544 -12.500  -6.470 107.000
 Approx polarizability: 145.582   1.546 141.730  -2.696  -2.781 144.910

                      1                      2                      3
                      A                      A                      A
 Frequencies --     29.1826                47.0066                84.5065
 Red. masses --      1.8966                 2.7698                 3.1060
 Frc consts  --      0.0010                 0.0036                 0.0131
 IR Inten    --      0.9304                 0.5857                 0.0537

                      4                      5                      6
                      A                      A                      A
 Frequencies --    102.1365               119.4072               165.6864
 Red. masses --      1.9668                 2.9756                 1.0400
 Frc consts  --      0.0121                 0.0250                 0.0168
 IR Inten    --      2.6233                 5.2045                 0.1275

                      7                      8                      9
                      A                      A                      A
 Frequencies --    177.4427               191.2853               193.1302
 Red. masses --      3.2092                 1.0570                 1.0525
 Frc consts  --      0.0595                 0.0228                 0.0231
 IR Inten    --      2.7758                 0.1813                 0.1401

                     10                     11                     12
                      A                      A                      A
 Frequencies --    217.7011               227.2848               249.5930
 Red. masses --      2.6047                 2.2290                 1.1692
 Frc consts  --      0.0727                 0.0678                 0.0429
 IR Inten    --      0.0772                 0.0103                 0.9825

                     13                     14                     15
                      A                      A                      A
 Frequencies --    252.8839               274.5601               320.0846
 Red. masses --      2.5821                 2.4070                 3.1961
 Frc consts  --      0.0973                 0.1069                 0.1929
 IR Inten    --      1.9624                 1.0975                 2.5608

                     16                     17                     18
                      A                      A                      A
 Frequencies --    388.5088               477.4983               641.5555
 Red. masses --      3.5959                 3.2825                 3.7999
 Frc consts  --      0.3198                 0.4410                 0.9215
 IR Inten    --      7.3882                 6.0703                 1.5616

                     19                     20                     21
                      A                      A                      A
 Frequencies --    737.4536               760.0482               768.8077
 Red. masses --      1.5069                 3.5365                 2.0963
 Frc consts  --      0.4829                 1.2037                 0.7300
 IR Inten    --      0.0017                 6.4275                 6.4692

                     22                     23                     24
                      A                      A                      A
 Frequencies --    776.6769               818.6711               827.5976
 Red. masses --      2.8391                 1.1722                 1.0878
 Frc consts  --      1.0090                 0.4629                 0.4390
 IR Inten    --      1.3855                 0.0002                 0.6528

                     25                     26                     27
                      A                      A                      A
 Frequencies --    875.5395               879.4993               903.5758
 Red. masses --      1.2377                 1.5842                 1.8924
 Frc consts  --      0.5590                 0.7220                 0.9103
 IR Inten    --      7.5340                 2.0458                21.0856

                     28                     29                     30
                      A                      A                      A
 Frequencies --    980.6220               986.2106              1005.2317
 Red. masses --      1.3677                 1.4719                 1.6164
 Frc consts  --      0.7749                 0.8434                 0.9623
 IR Inten    --     16.3953                38.4199               123.3615

                     31                     32                     33
                      A                      A                      A
 Frequencies --   1035.8349              1041.7271              1051.1791
 Red. masses --      2.9486                 1.4996                 3.5516
 Frc consts  --      1.8640                 0.9588                 2.3122
 IR Inten    --     18.8865                35.2179                35.5638

                     34                     35                     36
                      A                      A                      A
 Frequencies --   1140.9120              1148.6843              1176.4616
 Red. masses --      3.6455                 3.5417                 1.4737
 Frc consts  --      2.7958                 2.7533                 1.2017
 IR Inten    --    186.3422                61.1765                 7.4215

                     37                     38                     39
                      A                      A                      A
 Frequencies --   1224.8643              1268.2995              1303.7484
 Red. masses --      1.2918                 1.4093                 1.0904
 Frc consts  --      1.1418                 1.3356                 1.0920
 IR Inten    --      0.7352                 8.7702                 2.5540

                     40                     41                     42
                      A                      A                      A
 Frequencies --   1310.8242              1349.7493              1350.1931
 Red. masses --      1.0828                 1.2102                 1.2086
 Frc consts  --      1.0962                 1.2991                 1.2981
 IR Inten    --      2.0388                23.4655                22.5932

                     43                     44                     45
                      A                      A                      A
 Frequencies --   1371.4122              1390.5340              1417.0785
 Red. masses --      1.1910                 1.2190                 1.2512
 Frc consts  --      1.3197                 1.3888                 1.4803
 IR Inten    --      8.0834                37.7304                21.7606

                     46                     47                     48
                      A                      A                      A
 Frequencies --   1445.1521              1445.4656              1448.4752
 Red. masses --      1.0492                 1.1496                 1.1654
 Frc consts  --      1.2911                 1.4151                 1.4406
 IR Inten    --      0.0595                 0.7532                 1.3788

                     49                     50                     51
                      A                      A                      A
 Frequencies --   1450.3611              1456.4028              1464.3461
 Red. masses --      1.0444                 1.1452                 1.0421
 Frc consts  --      1.2944                 1.4312                 1.3166
 IR Inten    --      0.0830                 2.3881                13.4441

                     52                     53                     54
                      A                      A                      A
 Frequencies --   1468.2872              1472.6181              1485.5262
 Red. masses --      1.0491                 1.0427                 1.0376
 Frc consts  --      1.3326                 1.3323                 1.3491
 IR Inten    --     24.1684                27.4096                 9.9526

                     55                     56                     57
                      A                      A                      A
 Frequencies --   1499.3227              1516.4100              1533.6527
 Red. masses --      1.0521                 1.0850                 1.0861
 Frc consts  --      1.3935                 1.4700                 1.5051
 IR Inten    --      5.1358                 2.5910                 3.2118

                     58                     59                     60
                      A                      A                      A
 Frequencies --   2955.7580              2981.1716              2986.4086
 Red. masses --      1.0532                 1.1071                 1.0551
 Frc consts  --      5.4212                 5.7969                 5.5440
 IR Inten    --     40.0152                43.1623                50.7503

                     61                     62                     63
                      A                      A                      A
 Frequencies --   3019.0968              3044.2642              3047.2961
 Red. masses --      1.1085                 1.0349                 1.0494
 Frc consts  --      5.9531                 5.6509                 5.7413
 IR Inten    --     33.7198                 9.7590                 5.8688

                     64                     65                     66
                      A                      A                      A
 Frequencies --   3049.1335              3049.5584              3050.7593
 Red. masses --      1.0400                 1.0329                 1.0341
 Frc consts  --      5.6967                 5.6593                 5.6705
 IR Inten    --      2.4840                 3.9352                 0.6799

                     67                     68                     69
                      A                      A                      A
 Frequencies --   3096.3619              3113.9708              3118.8098
 Red. masses --      1.1043                 1.1017                 1.1039
 Frc consts  --      6.2379                 6.2943                 6.3265
 IR Inten    --      0.0317                14.4023                20.7081

                     70                     71                     72
                      A                      A                      A
 Frequencies --   3134.1046              3134.3054              3136.4843
 Red. masses --      1.1038                 1.1043                 1.1035
 Frc consts  --      6.3879                 6.3919                 6.3962
 IR Inten    --      0.1580                 0.0608                 1.0391

                     73                     74                     75
                      A                      A                      A
 Frequencies --   3136.6485              3138.4270              3139.9949
 Red. masses --      1.1038                 1.1037                 1.1036
 Frc consts  --      6.3986                 6.4050                 6.4108
 IR Inten    --      1.5203                 0.4283                 0.8150

 - Thermochemistry -
 -------------------
 Temperature   298.150 Kelvin.  Pressure   1.00000 Atm.
 Atom     1 has atomic number  6 and mass  12.00000

 Molecular mass:   149.10953 amu.
 Principal axes and moments of inertia in atomic units:
                           1         2         3
     Eigenvalues --   614.404683677.205293718.38285
           X            0.73912   0.67355   0.00495
           Y            0.33639  -0.37548   0.86363
           Z           -0.58356   0.63666   0.50410
 This molecule is an asymmetric top.
 Rotational symmetry number  1.
 Warning -- assumption of classical behavior for rotation
           may cause significant error
 Rotational temperatures (Kelvin)      0.14097     0.02355     0.02329
 Rotational constants (GHZ):           2.93738     0.49079     0.48536
 Zero-point vibrational energy     634496.1 (Joules/Mol)
                                  151.64821 (Kcal/Mol)
 Warning -- explicit consideration of  17 degrees of freedom as
           vibrations may cause significant error
 Vibrational temperatures:     41.99    67.63   121.59   146.95   171.80
          (Kelvin)            238.39   255.30   275.22   277.87   313.22
                              327.01   359.11   363.84   395.03   460.53
                              558.98   687.01   923.05  1061.03  1093.54
                             1106.14  1117.46  1177.88  1190.73  1259.70
                             1265.40  1300.04  1410.89  1418.94  1446.30
                             1490.33  1498.81  1512.41  1641.52  1652.70
                             1692.66  1762.30  1824.80  1875.80  1885.98
                             1941.99  1942.62  1973.15  2000.67  2038.86
                             2079.25  2079.70  2084.03  2086.74  2095.44
                             2106.86  2112.54  2118.77  2137.34  2157.19
                             2181.77  2206.58  4252.67  4289.24  4296.77
                             4343.80  4380.01  4384.37  4387.02  4387.63
                             4389.36  4454.97  4480.30  4487.27  4509.27
                             4509.56  4512.70  4512.93  4515.49  4517.75

 Zero-point correction=                           0.241667 (Hartree/Particle)
 Thermal correction to Energy=                    0.255447
 Thermal correction to Enthalpy=                  0.256391
 Thermal correction to Gibbs Free Energy=         0.200823
 Sum of electronic and zero-point Energies=           -693.885058
 Sum of electronic and thermal Energies=              -693.871278
 Sum of electronic and thermal Enthalpies=            -693.870334
 Sum of electronic and thermal Free Energies=         -693.925902

                     E (Thermal)             CV                S
                      KCal/Mol        Cal/Mol-Kelvin    Cal/Mol-Kelvin
 Total                  160.295             48.187            116.952
 Electronic               0.000              0.000              0.000
 Translational            0.889              2.981             40.909
 Rotational               0.889              2.981             30.508
 Vibrational            158.518             42.226             45.535
 Vibration     1          0.593              1.984              5.884
 Vibration     2          0.595              1.979              4.940
 Vibration     3          0.601              1.960              3.783
 Vibration     4          0.604              1.947              3.413
 Vibration     5          0.609              1.933              3.110
 Vibration     6          0.624              1.885              2.484
 Vibration     7          0.628              1.870              2.355
 Vibration     8          0.634              1.852              2.215
 Vibration     9          0.635              1.849              2.198
 Vibration    10          0.646              1.814              1.978
 Vibration    11          0.651              1.799              1.900
 Vibration    12          0.662              1.763              1.733
 Vibration    13          0.664              1.758              1.710
 Vibration    14          0.677              1.720              1.567
 Vibration    15          0.706              1.635              1.310
 Vibration    16          0.757              1.495              1.006
 Vibration    17          0.834              1.300              0.717

 Optimization completed.
    -- Stationary point found.
 Normal termination of Gaussian 09 at Sat Nov 28 11:51:46 2020.
