 Gaussian 09, Revision E.01,
 Gaussian 09:  ES64L-G09RevE.01 30-Nov-2015

 ----------------------------------------------------------------------
 # opt=(maxcycles=400,verytight) freq EmpiricalDispersion=GD3BJ rb3lyp/
 6-311+g(d,p) int=ultrafine symmetry=none scf=(conver=10) pop=(minimal,
 CHELPG,Dipole)
 ----------------------------------------------------------------------

 -------------------
 Title Card Required
 -------------------
 Symbolic Z-matrix:
 Charge =  1 Multiplicity = 1

 SCF Done:  E(RB3LYP) =  -618.900372893     A.U. after   14 cycles
 Optimization completed.
    -- Stationary point found.
 Normal termination of Gaussian 09 at Fri Mar 26 17:34:28 2021.

 ----------------------------------------------------------------------
 #N Geom=AllCheck Guess=TCheck SCRF=Check GenChk RB3LYP/6-311+G(d,p) Fr
 eq
 ----------------------------------------------------------------------

 Structure from the checkpoint file:  "P2221.chk"
 -------------------
 Title Card Required
 -------------------
 Charge =  1 Multiplicity = 1

                          Input orientation:
 ---------------------------------------------------------------------
 Center     Atomic      Atomic             Coordinates (Angstroms)
 Number     Number       Type             X           Y           Z
 ---------------------------------------------------------------------
      1         15           0       -0.523424    0.930753    2.195210
      2          6           0       -1.589788   -0.387894    1.529673
      3          6           0        0.837058    0.159742    3.129726
      4          6           0       -1.486507    2.031676    3.279402
      5          6           0        0.153992    1.910397    0.830831
      6          1           0       -1.878856   -1.016049    2.376928
      7          1           0       -0.955899   -1.003678    0.884315
      8          1           0        1.376708   -0.477943    2.422903
      9          1           0        0.375871   -0.506461    3.864232
     10          1           0       -2.247061    2.505651    2.652706
     11          1           0       -0.809441    2.827098    3.603058
     12          1           0        0.741117    1.269951    0.170262
     13          1           0        0.793211    2.702475    1.222897
     14          1           0       -0.657789    2.364170    0.260897
     15          6           0        1.782009    1.160034    3.807602
     16          1           0        1.262684    1.774450    4.545206
     17          1           0        2.568820    0.615283    4.330645
     18          1           0        2.266292    1.819596    3.085268
     19          6           0       -2.823059    0.121632    0.773025
     20          1           0       -3.395069   -0.729181    0.401119
     21          1           0       -3.483519    0.704320    1.417674
     22          1           0       -2.550382    0.733586   -0.088692
     23          6           0       -2.119878    1.316730    4.479392
     24          1           0       -2.677166    2.037837    5.078332
     25          1           0       -2.819676    0.539147    4.167433
     26          1           0       -1.367221    0.864105    5.127697
 ---------------------------------------------------------------------

 SCF Done:  E(RB3LYP) =  -618.900372893     A.U. after    1 cycles

 Alpha  occ. eigenvalues --  -77.27755 -10.35306 -10.35306 -10.35275 -10.34806
 Alpha  occ. eigenvalues --  -10.31970 -10.31915 -10.31912  -6.77336  -4.93380
 Alpha  occ. eigenvalues --   -4.93350  -4.93346  -0.99495  -0.93003  -0.92606
 Alpha  occ. eigenvalues --   -0.89794  -0.82635  -0.79763  -0.78128  -0.70670
 Alpha  occ. eigenvalues --   -0.64426  -0.64255  -0.62402  -0.60039  -0.59055
 Alpha  occ. eigenvalues --   -0.58350  -0.57264  -0.56999  -0.56804  -0.54189
 Alpha  occ. eigenvalues --   -0.53553  -0.52671  -0.52156  -0.51333  -0.50811
 Alpha  occ. eigenvalues --   -0.49131  -0.49083
 Alpha virt. eigenvalues --   -0.14162  -0.12391  -0.11974  -0.11881  -0.10876
 Alpha virt. eigenvalues --   -0.10414  -0.10044  -0.08472  -0.07808  -0.07375
 Alpha virt. eigenvalues --   -0.06853  -0.06747  -0.05519  -0.04966  -0.04669

 Mulliken charges:
               1
     1  P    0.540691
     2  C   -0.217904
     3  C   -0.217944
     4  C   -0.205790
     5  C   -0.675742
     6  H    0.224967
     7  H    0.221857
     8  H    0.221848
     9  H    0.224894
    10  H    0.223470
    11  H    0.223296
    12  H    0.231284
    13  H    0.225279
    14  H    0.224945
    15  C   -0.612091
    16  H    0.168520
    17  H    0.193349
    18  H    0.167467
    19  C   -0.611561
    20  H    0.193390
    21  H    0.168544
    22  H    0.167190
    23  C   -0.611984
    24  H    0.192228
    25  H    0.169912
    26  H    0.169885
 Sum of Mulliken charges =   1.00000

 Dipole moment (field-independent basis, Debye):
    X=             -2.8974    Y=              4.4339    Z=             11.1359  Tot=             12.3314
 Quadrupole moment (field-independent basis, Debye-Ang):
   XX=            -44.9537   YY=            -47.4822   ZZ=            -22.2501
   XY=             -2.0772   XZ=             -5.4104   YZ=             11.3790

  Exact polarizability: 105.815   2.648  90.934   4.119   2.207 102.104
 Approx polarizability: 141.031   0.762 136.504   1.222   0.727 139.908

 ESP charges:
               1
     1  P    0.411694
     2  C   -0.050128
     3  C   -0.028486
     4  C    0.056076
     5  C   -0.445427
     6  H    0.059279
     7  H    0.073782
     8  H    0.067450
     9  H    0.052724
    10  H    0.046981
    11  H    0.046424
    12  H    0.184472
    13  H    0.164361
    14  H    0.165785
    15  C   -0.130906
    16  H    0.058446
    17  H    0.090401
    18  H    0.056172
    19  C   -0.127261
    20  H    0.091505
    21  H    0.057734
    22  H    0.056153
    23  C   -0.217355
    24  H    0.102414
    25  H    0.079219
    26  H    0.078491
 Sum of ESP charges =   1.00000

                      1                      2                      3
                      A                      A                      A
 Frequencies --     58.2006                68.9848                89.5150
 Red. masses --      2.2830                 2.3389                 1.6539
 Frc consts  --      0.0046                 0.0066                 0.0078
 IR Inten    --      0.1118                 0.4871                 0.0918

                      4                      5                      6
                      A                      A                      A
 Frequencies --    130.1800               167.1165               173.1365
 Red. masses --      2.9072                 1.0609                 1.8606
 Frc consts  --      0.0290                 0.0175                 0.0329
 IR Inten    --      0.3852                 0.0179                 0.7649

                      7                      8                      9
                      A                      A                      A
 Frequencies --    193.0691               208.6526               211.5538
 Red. masses --      1.3062                 1.6179                 1.6506
 Frc consts  --      0.0287                 0.0415                 0.0435
 IR Inten    --      0.0380                 0.6447                 0.1498

                     10                     11                     12
                      A                      A                      A
 Frequencies --    249.6821               254.5707               273.4895
 Red. masses --      1.4269                 1.5405                 1.8321
 Frc consts  --      0.0524                 0.0588                 0.0807
 IR Inten    --      0.0020                 0.0055                 0.5335

                     13                     14                     15
                      A                      A                      A
 Frequencies --    324.6874               367.7228               384.1360
 Red. masses --      3.4245                 2.8097                 2.6725
 Frc consts  --      0.2127                 0.2238                 0.2323
 IR Inten    --      0.9423                 2.3472                 3.3474

                     16                     17                     18
                      A                      A                      A
 Frequencies --    595.5356               689.7768               712.8910
 Red. masses --      3.2819                 2.4147                 2.3741
 Frc consts  --      0.6858                 0.6769                 0.7109
 IR Inten    --      0.1644                 0.7756                 1.5921

                     19                     20                     21
                      A                      A                      A
 Frequencies --    715.6856               751.0019               774.4770
 Red. masses --      1.3573                 1.9666                 1.2807
 Frc consts  --      0.4096                 0.6535                 0.4526
 IR Inten    --      4.3186                14.7396                13.4002

                     22                     23                     24
                      A                      A                      A
 Frequencies --    801.0785               910.8737               912.8218
 Red. masses --      2.2885                 1.2937                 1.3006
 Frc consts  --      0.8653                 0.6324                 0.6385
 IR Inten    --     33.6222                23.6492                32.4775

                     25                     26                     27
                      A                      A                      A
 Frequencies --    984.3861               986.7488               997.3691
 Red. masses --      1.8650                 1.9505                 2.3658
 Frc consts  --      1.0648                 1.1190                 1.3865
 IR Inten    --      0.0349                 0.1820                 0.4346

                     28                     29                     30
                      A                      A                      A
 Frequencies --   1009.5634              1041.7804              1058.4616
 Red. masses --      1.3505                 1.4599                 1.5382
 Frc consts  --      0.8110                 0.9335                 1.0153
 IR Inten    --      0.2462                27.0104                 4.1567

                     31                     32                     33
                      A                      A                      A
 Frequencies --   1064.9318              1071.6547              1078.1083
 Red. masses --      1.4433                 1.6150                 1.8507
 Frc consts  --      0.9644                 1.0928                 1.2674
 IR Inten    --     29.1029                22.5521                 1.4629

                     34                     35                     36
                      A                      A                      A
 Frequencies --   1262.5451              1271.0146              1278.1926
 Red. masses --      1.2185                 1.1973                 1.2080
 Frc consts  --      1.1444                 1.1397                 1.1628
 IR Inten    --      0.3369                 1.3426                 2.1669

                     37                     38                     39
                      A                      A                      A
 Frequencies --   1301.9699              1305.1711              1317.9426
 Red. masses --      1.3968                 1.3711                 1.3759
 Frc consts  --      1.3951                 1.3761                 1.4081
 IR Inten    --      1.4341                 1.7719                 1.4448

                     40                     41                     42
                      A                      A                      A
 Frequencies --   1354.5698              1427.4308              1427.9044
 Red. masses --      1.2106                 1.1940                 1.1884
 Frc consts  --      1.3088                 1.4334                 1.4276
 IR Inten    --     16.9152                 3.5230                 4.1894

                     43                     44                     45
                      A                      A                      A
 Frequencies --   1428.7910              1449.0053              1456.1430
 Red. masses --      1.1744                 1.0660                 1.0610
 Frc consts  --      1.4125                 1.3187                 1.3255
 IR Inten    --      1.2358                 0.3633                 4.2431

                     46                     47                     48
                      A                      A                      A
 Frequencies --   1462.0462              1462.5376              1469.7865
 Red. masses --      1.0565                 1.0786                 1.0669
 Frc consts  --      1.3306                 1.3594                 1.3579
 IR Inten    --      6.2530                 1.0122                53.2476

                     49                     50                     51
                      A                      A                      A
 Frequencies --   1497.6705              1500.3344              1504.6007
 Red. masses --      1.0406                 1.0450                 1.0475
 Frc consts  --      1.3751                 1.3860                 1.3972
 IR Inten    --      7.2105                 9.5623                 1.4039

                     52                     53                     54
                      A                      A                      A
 Frequencies --   1505.7151              1507.8108              1508.8194
 Red. masses --      1.0369                 1.0356                 1.0363
 Frc consts  --      1.3851                 1.3872                 1.3900
 IR Inten    --      3.6703                 7.6928                24.2062

                     55                     56                     57
                      A                      A                      A
 Frequencies --   3043.5157              3045.4012              3047.9974
 Red. masses --      1.0569                 1.0498                 1.0456
 Frc consts  --      5.7682                 5.7366                 5.7234
 IR Inten    --      2.4253                 3.3346                 0.1710

                     58                     59                     60
                      A                      A                      A
 Frequencies --   3050.2616              3050.7451              3052.3068
 Red. masses --      1.0416                 1.0419                 1.0381
 Frc consts  --      5.7097                 5.7132                 5.6985
 IR Inten    --      8.0905                 7.3628                 9.5429

                     61                     62                     63
                      A                      A                      A
 Frequencies --   3054.8173              3084.2486              3087.9144
 Red. masses --      1.0437                 1.1040                 1.1030
 Frc consts  --      5.7383                 6.1877                 6.1967
 IR Inten    --      3.4975                 0.1919                 0.2939

                     64                     65                     66
                      A                      A                      A
 Frequencies --   3089.2724              3117.2397              3120.0835
 Red. masses --      1.1029                 1.1034                 1.1033
 Frc consts  --      6.2018                 6.3172                 6.3279
 IR Inten    --      0.0889                 8.9680                16.4379

                     67                     68                     69
                      A                      A                      A
 Frequencies --   3120.6258              3122.4519              3122.7059
 Red. masses --      1.1032                 1.1021                 1.1020
 Frc consts  --      6.3296                 6.3309                 6.3311
 IR Inten    --      6.9701                 2.0806                 5.3776

                     70                     71                     72
                      A                      A                      A
 Frequencies --   3122.7760              3137.6679              3140.9000
 Red. masses --      1.1022                 1.1036                 1.1031
 Frc consts  --      6.3328                 6.4017                 6.4116
 IR Inten    --      2.4250                 0.4218                 0.2121

 - Thermochemistry -
 -------------------
 Temperature   298.150 Kelvin.  Pressure   1.00000 Atm.
 Atom     1 has atomic number 15 and mass  30.97376

 Molecular mass:   133.11461 amu.
 Principal axes and moments of inertia in atomic units:
                           1         2         3
     Eigenvalues --   956.699241421.666851784.01539
           X            0.82106  -0.56647  -0.07054
           Y            0.18484   0.14691   0.97173
           Z            0.54009   0.81088  -0.22533
 This molecule is an asymmetric top.
 Rotational symmetry number  1.
 Warning -- assumption of classical behavior for rotation
           may cause significant error
 Rotational temperatures (Kelvin)      0.09053     0.06092     0.04855
 Rotational constants (GHZ):           1.88642     1.26945     1.01162
 Zero-point vibrational energy     625783.2 (Joules/Mol)
                                  149.56577 (Kcal/Mol)
 Warning -- explicit consideration of  16 degrees of freedom as
           vibrations may cause significant error
 Vibrational temperatures:     83.74    99.25   128.79   187.30   240.44
          (Kelvin)            249.10   277.78   300.20   304.38   359.24
                              366.27   393.49   467.15   529.07   552.69
                              856.84   992.43  1025.69  1029.71  1080.52
                             1114.30  1152.57  1310.54  1313.35  1416.31
                             1419.71  1434.99  1452.53  1498.89  1522.89
                             1532.20  1541.87  1551.16  1816.52  1828.70
                             1839.03  1873.24  1877.85  1896.22  1948.92
                             2053.75  2054.43  2055.71  2084.79  2095.06
                             2103.56  2104.26  2114.69  2154.81  2158.64
                             2164.78  2166.39  2169.40  2170.85  4378.93
                             4381.65  4385.38  4388.64  4389.34  4391.58
                             4395.20  4437.54  4442.81  4444.77  4485.01
                             4489.10  4489.88  4492.51  4492.87  4492.97
                             4514.40  4519.05

 Zero-point correction=                           0.238348 (Hartree/Particle)
 Thermal correction to Energy=                    0.250893
 Thermal correction to Enthalpy=                  0.251837
 Thermal correction to Gibbs Free Energy=         0.200452
 Sum of electronic and zero-point Energies=           -618.662025
 Sum of electronic and thermal Energies=              -618.649480
 Sum of electronic and thermal Enthalpies=            -618.648536
 Sum of electronic and thermal Free Energies=         -618.699921

                     E (Thermal)             CV                S
                      KCal/Mol        Cal/Mol-Kelvin    Cal/Mol-Kelvin
 Total                  157.438             44.803            108.150
 Electronic               0.000              0.000              0.000
 Translational            0.889              2.981             40.571
 Rotational               0.889              2.981             29.274
 Vibrational            155.660             38.841             38.305
 Vibration     1          0.596              1.974              4.517
 Vibration     2          0.598              1.969              4.182
 Vibration     3          0.602              1.957              3.671
 Vibration     4          0.612              1.923              2.943
 Vibration     5          0.624              1.883              2.468
 Vibration     6          0.627              1.876              2.401
 Vibration     7          0.635              1.849              2.198
 Vibration     8          0.642              1.827              2.055
 Vibration     9          0.643              1.823              2.030
 Vibration    10          0.662              1.763              1.733
 Vibration    11          0.665              1.755              1.699
 Vibration    12          0.676              1.722              1.574
 Vibration    13          0.709              1.626              1.286
 Vibration    14          0.740              1.539              1.089
 Vibration    15          0.753              1.504              1.023
 Vibration    16          0.953              1.041              0.457

 Normal termination of Gaussian 09 at Fri Mar 26 17:37:53 2021.
