 Gaussian 09, Revision E.01,
 Gaussian 09:  ES64L-G09RevE.01 30-Nov-2015

 ----------------------------------------------------------------------
 # RMP2=(semidirect,full)/cc-pVTZ int=ultrafine symmetry=none scf=conve
 r=11 Density=current pop=(minimal,CHELPG,Dipole)
 ----------------------------------------------------------------------

 -------------------
 Title Card Required
 -------------------
 Symbolic Z-matrix:
 Charge =  1 Multiplicity = 1

                          Input orientation:
 ---------------------------------------------------------------------
 Center     Atomic      Atomic             Coordinates (Angstroms)
 Number     Number       Type             X           Y           Z
 ---------------------------------------------------------------------
      1          6           0       -5.055180    0.145553   -0.178352
      2          1           0       -5.279619    1.211701   -0.271455
      3          1           0       -5.280129   -0.305193   -1.148862
      4          6           0       -2.761225    0.819191    1.611905
      5          1           0       -3.259069    0.275250    2.419568
      6          1           0       -1.688642    0.643633    1.733388
      7          6           0       -2.763554   -1.743266    0.138597
      8          1           0       -1.690347   -1.761412    0.348194
      9          1           0       -3.259366   -2.166164    1.016875
     10          6           0       -2.452583    0.822325   -1.358454
     11          1           0       -2.806200    1.856289   -1.392198
     12          1           0       -2.809043    0.333855   -2.269256
     13          6           0       -0.924360    0.801103   -1.325670
     14          1           0       -0.548111   -0.233225   -1.313637
     15          1           0       -0.545691    1.302385   -0.421839
     16          6           0       -5.880378   -0.501343    0.940473
     17          1           0       -5.686458   -0.038776    1.910016
     18          1           0       -6.942269   -0.376726    0.725186
     19          1           0       -5.686566   -1.572421    1.023194
     20          6           0       -3.095260   -2.544067   -1.126613
     21          1           0       -2.776477   -3.578651   -0.994518
     22          1           0       -4.167303   -2.555009   -1.332239
     23          1           0       -2.578843   -2.150603   -2.004060
     24          6           0       -3.087976    2.316609    1.666107
     25          1           0       -4.159310    2.503253    1.570930
     26          1           0       -2.768838    2.722495    2.626757
     27          1           0       -2.568910    2.874757    0.884795
     28          6           0        0.924613    1.538120   -2.600962
     29          1           0        1.349207    0.527455   -2.638215
     30          1           0        1.353178    2.064651   -1.739430
     31          6           0        1.251998    2.285433   -3.880310
     32          1           0        0.819765    3.295792   -3.844245
     33          1           0        0.814691    1.761058   -4.742131
     34          6           0        3.129944    3.012046   -5.130120
     35          1           0        2.747139    4.042452   -5.130025
     36          1           0        2.741338    2.511389   -6.028224
     37          6           0        4.644379    2.997335   -5.114860
     38          1           0        5.019980    1.971994   -5.121403
     39          1           0        5.033525    3.513055   -5.996132
     40          1           0        5.025790    3.500892   -4.224129
     41         15           0       -3.253292    0.009904    0.055030
     42          8           0       -0.499405    1.471228   -2.480253
     43          8           0        2.656304    2.331865   -3.967544
 ---------------------------------------------------------------------

 SCF Done:  E(RHF) =  -961.229319989     A.U. after   17 cycles
 E2 =    -0.2986467970D+01 EUMP2 =    -0.96421578795871D+03

 Alpha  occ. eigenvalues --  -80.16726 -20.67483 -20.62797 -11.42209 -11.40112
 Alpha  occ. eigenvalues --  -11.40111 -11.40040 -11.39320 -11.37246 -11.36961
 Alpha  occ. eigenvalues --  -11.36935 -11.36933 -11.35642 -11.34188 -11.27444
 Alpha  occ. eigenvalues --   -7.70650  -5.60165  -5.60152  -5.60150  -1.49694
 Alpha  occ. eigenvalues --   -1.44732  -1.25824  -1.18717  -1.18432  -1.17746
 Alpha  occ. eigenvalues --   -1.11488  -1.06955  -1.04598  -1.02075  -0.99875
 Alpha  occ. eigenvalues --   -0.98159  -0.92840  -0.89949  -0.88064  -0.81959
 Alpha  occ. eigenvalues --   -0.80694  -0.79714  -0.77359  -0.77230  -0.74996
 Alpha  occ. eigenvalues --   -0.74467  -0.73975  -0.73127  -0.71790  -0.71101
 Alpha  occ. eigenvalues --   -0.70898  -0.70193  -0.68453  -0.67201  -0.67062
 Alpha  occ. eigenvalues --   -0.67030  -0.66103  -0.66042  -0.64840  -0.62868
 Alpha  occ. eigenvalues --   -0.62518  -0.61511  -0.60876  -0.60225  -0.59471
 Alpha  occ. eigenvalues --   -0.56754  -0.56729  -0.54843  -0.54087  -0.49601
 Alpha virt. eigenvalues --   -0.00948   0.01260   0.01764   0.02269   0.03253
 Alpha virt. eigenvalues --    0.03505   0.04745   0.04976   0.05831   0.07159
 Alpha virt. eigenvalues --    0.08262   0.08979   0.09373   0.09836   0.10095

 Mulliken charges:
               1
     1  C   -0.316947
     2  H    0.189803
     3  H    0.189708
     4  C   -0.319616
     5  H    0.189758
     6  H    0.187627
     7  C   -0.320035
     8  H    0.187793
     9  H    0.189731
    10  C   -0.295678
    11  H    0.193242
    12  H    0.193297
    13  C   -0.060661
    14  H    0.108003
    15  H    0.107874
    16  C   -0.385000
    17  H    0.147041
    18  H    0.178739
    19  H    0.146967
    20  C   -0.382811
    21  H    0.178053
    22  H    0.146904
    23  H    0.149710
    24  C   -0.382936
    25  H    0.146924
    26  H    0.178044
    27  H    0.149779
    28  C   -0.056558
    29  H    0.102195
    30  H    0.101949
    31  C   -0.029102
    32  H    0.090300
    33  H    0.090446
    34  C   -0.038027
    35  H    0.090349
    36  H    0.090357
    37  C   -0.351346
    38  H    0.127780
    39  H    0.124402
    40  H    0.127748
    41  P    0.374455
    42  O   -0.263105
    43  O   -0.277158
 Sum of Mulliken charges =   1.00000

 Dipole moment (field-independent basis, Debye):
    X=            -14.4840    Y=              0.5659    Z=             -0.6237  Tot=             14.5085
 Quadrupole moment (field-independent basis, Debye-Ang):
   XX=            -36.8448   YY=            -86.6809   ZZ=            -82.7816
   XY=              6.0727   XZ=            -11.4965   YZ=             -3.5345

 ESP charges:
               1
     1  C    0.099008
     2  H    0.048022
     3  H    0.050398
     4  C    0.091134
     5  H    0.047775
     6  H    0.033664
     7  C    0.095755
     8  H    0.031563
     9  H    0.045767
    10  C   -0.121570
    11  H    0.094987
    12  H    0.094335
    13  C    0.338985
    14  H   -0.002429
    15  H   -0.000769
    16  C   -0.223193
    17  H    0.086861
    18  H    0.096619
    19  H    0.085755
    20  C   -0.197040
    21  H    0.093603
    22  H    0.074138
    23  H    0.088014
    24  C   -0.212306
    25  H    0.079291
    26  H    0.098198
    27  H    0.092161
    28  C    0.210577
    29  H    0.012523
    30  H    0.012064
    31  C    0.280130
    32  H   -0.008286
    33  H   -0.006933
    34  C    0.385706
    35  H   -0.033113
    36  H   -0.033731
    37  C   -0.249211
    38  H    0.078597
    39  H    0.059947
    40  H    0.078759
    41  P    0.084034
    42  O   -0.488300
    43  O   -0.491490
 Sum of ESP charges =   1.00000

 Normal termination of Gaussian 09 at Tue Mar 23 15:00:34 2021.
