 Gaussian 09, Revision E.01,
 Gaussian 09:  ES64L-G09RevE.01 30-Nov-2015

 ----------------------------------------------------------------------
 # RMP2=(semidirect,full)/cc-pVTZ int=ultrafine symmetry=none scf=conve
 r=11 Density=current pop=(minimal,CHELPG,Dipole)
 ----------------------------------------------------------------------

 -------------------
 Title Card Required
 -------------------
 Symbolic Z-matrix:
 Charge =  1 Multiplicity = 1

                          Input orientation:
 ---------------------------------------------------------------------
 Center     Atomic      Atomic             Coordinates (Angstroms)
 Number     Number       Type             X           Y           Z
 ---------------------------------------------------------------------
      1          6           0       -5.237916    0.074732   -0.048870
      2          1           0       -5.496220    1.134108   -0.131718
      3          1           0       -5.502322   -0.384455   -1.005473
      4          6           0       -2.873427    0.807972    1.619485
      5          1           0       -3.310039    0.247212    2.450545
      6          1           0       -1.791206    0.664424    1.680466
      7          6           0       -2.883219   -1.749726    0.147435
      8          1           0       -1.800386   -1.736739    0.298506
      9          1           0       -3.319436   -2.183769    1.051376
     10          6           0       -2.697210    0.820540   -1.359738
     11          1           0       -3.096302    1.839379   -1.374546
     12          1           0       -3.093846    0.318581   -2.247542
     13          6           0       -1.161420    0.832807   -1.376399
     14          1           0       -0.779091   -0.192968   -1.353121
     15          1           0       -0.781912    1.330949   -0.478209
     16          6           0       -5.987356   -0.590115    1.111988
     17          1           0       -5.755246   -0.119760    2.069329
     18          1           0       -7.062099   -0.494662    0.952500
     19          1           0       -5.760619   -1.655304    1.186489
     20          6           0       -3.259322   -2.562917   -1.096992
     21          1           0       -2.799914   -2.157784   -2.000497
     22          1           0       -2.906592   -3.588434   -0.981128
     23          1           0       -4.339954   -2.602868   -1.246722
     24          6           0       -3.240509    2.294711    1.698254
     25          1           0       -2.881430    2.708093    2.641500
     26          1           0       -2.781113    2.869345    0.891846
     27          1           0       -4.320401    2.450576    1.662011
     28          6           0       -0.613557    1.546205   -2.616676
     29          1           0       -0.999377    2.572104   -2.642973
     30          1           0       -0.994477    1.049593   -3.516823
     31          6           0        0.915845    1.573630   -2.655516
     32          1           0        1.298511    0.545956   -2.626461
     33          1           0        1.293281    2.067826   -1.751787
     34          6           0        1.471406    2.285763   -3.891044
     35          1           0        1.087345    3.312866   -3.920574
     36          1           0        1.093518    1.791782   -4.794639
     37          6           0        3.000648    2.315749   -3.932290
     38          1           0        3.385069    1.288410   -3.902371
     39          1           0        3.378770    2.809289   -3.028104
     40          6           0        3.560070    3.027639   -5.166605
     41          1           0        3.175037    4.053735   -5.195646
     42          1           0        3.181613    2.533836   -6.069319
     43          6           0        5.089009    3.052746   -5.198702
     44          1           0        5.500123    2.038763   -5.203774
     45          1           0        5.460308    3.566085   -6.088775
     46          1           0        5.493407    3.570026   -4.323441
     47         15           0       -3.422074   -0.010216    0.086666
 ---------------------------------------------------------------------

 SCF Done:  E(RHF) =  -889.576612245     A.U. after   17 cycles
 E2 =    -0.2888058122D+01 EUMP2 =    -0.89246467036716D+03

 Alpha  occ. eigenvalues --  -80.16202 -11.39746 -11.39714 -11.39711 -11.39163
 Alpha  occ. eigenvalues --  -11.36734 -11.36713 -11.36713 -11.36458 -11.33198
 Alpha  occ. eigenvalues --  -11.31198 -11.29644 -11.28528 -11.27885 -11.26644
 Alpha  occ. eigenvalues --   -7.70133  -5.59645  -5.59633  -5.59631  -1.25710
 Alpha  occ. eigenvalues --   -1.20680  -1.18405  -1.17894  -1.15892  -1.11738
 Alpha  occ. eigenvalues --   -1.07125  -1.04110  -1.01624  -0.99571  -0.98334
 Alpha  occ. eigenvalues --   -0.92834  -0.88844  -0.87377  -0.85518  -0.80418
 Alpha  occ. eigenvalues --   -0.79647  -0.79000  -0.75493  -0.73768  -0.72909
 Alpha  occ. eigenvalues --   -0.72394  -0.71777  -0.71054  -0.69817  -0.69192
 Alpha  occ. eigenvalues --   -0.67747  -0.67477  -0.66798  -0.65958  -0.65855
 Alpha  occ. eigenvalues --   -0.65580  -0.64431  -0.64193  -0.63090  -0.61451
 Alpha  occ. eigenvalues --   -0.60769  -0.60516  -0.59744  -0.58717  -0.57966
 Alpha  occ. eigenvalues --   -0.56327  -0.54993  -0.53158  -0.52710  -0.51426
 Alpha virt. eigenvalues --   -0.00755   0.01335   0.01815   0.02303   0.03364
 Alpha virt. eigenvalues --    0.03468   0.04790   0.05124   0.05456   0.07020
 Alpha virt. eigenvalues --    0.08386   0.08656   0.08905   0.09757   0.09784

 Mulliken charges:
               1
     1  C   -0.318382
     2  H    0.187932
     3  H    0.187927
     4  C   -0.319668
     5  H    0.189975
     6  H    0.188150
     7  C   -0.319047
     8  H    0.188102
     9  H    0.189721
    10  C   -0.310183
    11  H    0.189341
    12  H    0.189565
    13  C   -0.282170
    14  H    0.151040
    15  H    0.150867
    16  C   -0.384872
    17  H    0.146480
    18  H    0.177692
    19  H    0.146477
    20  C   -0.384571
    21  H    0.147346
    22  H    0.177437
    23  H    0.146641
    24  C   -0.384532
    25  H    0.177448
    26  H    0.147322
    27  H    0.146696
    28  C   -0.240878
    29  H    0.136220
    30  H    0.136345
    31  C   -0.240229
    32  H    0.126028
    33  H    0.125932
    34  C   -0.237003
    35  H    0.124190
    36  H    0.124259
    37  C   -0.226348
    38  H    0.119517
    39  H    0.119470
    40  C   -0.225311
    41  H    0.121515
    42  H    0.121544
    43  C   -0.377457
    44  H    0.119984
    45  H    0.137878
    46  H    0.119962
    47  P    0.391646
 Sum of Mulliken charges =   1.00000

 Dipole moment (field-independent basis, Debye):
    X=            -15.1347    Y=              0.5017    Z=             -0.5327  Tot=             15.1524
 Quadrupole moment (field-independent basis, Debye-Ang):
   XX=            -37.5429   YY=            -91.8123   ZZ=            -91.1993
   XY=              4.0753   XZ=             -8.1108   YZ=             -0.6021

 ESP charges:
               1
     1  C    0.077358
     2  H    0.050086
     3  H    0.049610
     4  C    0.071803
     5  H    0.043504
     6  H    0.037258
     7  C    0.065790
     8  H    0.036490
     9  H    0.043704
    10  C   -0.159020
    11  H    0.080481
    12  H    0.080912
    13  C    0.100309
    14  H    0.017764
    15  H    0.017847
    16  C   -0.223037
    17  H    0.084514
    18  H    0.096774
    19  H    0.084281
    20  C   -0.163277
    21  H    0.076151
    22  H    0.085969
    23  H    0.064614
    24  C   -0.194235
    25  H    0.094018
    26  H    0.084659
    27  H    0.072493
    28  C   -0.095456
    29  H    0.038273
    30  H    0.038391
    31  C    0.033805
    32  H   -0.007369
    33  H   -0.007757
    34  C    0.028300
    35  H   -0.008589
    36  H   -0.008822
    37  C   -0.018429
    38  H    0.003847
    39  H    0.003512
    40  C    0.176166
    41  H   -0.031907
    42  H   -0.031199
    43  C   -0.223754
    44  H    0.049239
    45  H    0.061253
    46  H    0.049668
    47  P    0.174011
 Sum of ESP charges =   1.00000

 Normal termination of Gaussian 09 at Tue Mar 23 18:33:17 2021.
