 Gaussian 09, Revision E.01,
 Gaussian 09:  ES64L-G09RevE.01 30-Nov-2015

 ----------------------------------------------------------------------
 # RMP2=(semidirect,full)/cc-pVTZ int=ultrafine symmetry=none scf=conve
 r=11 Density=current pop=(minimal,CHELPG,Dipole)
 ----------------------------------------------------------------------

 -------------------
 Title Card Required
 -------------------
 Symbolic Z-matrix:
 Charge =  1 Multiplicity = 1

                          Input orientation:
 ---------------------------------------------------------------------
 Center     Atomic      Atomic             Coordinates (Angstroms)
 Number     Number       Type             X           Y           Z
 ---------------------------------------------------------------------
      1         15           0       -0.523424    0.930753    2.195210
      2          6           0       -1.589788   -0.387894    1.529673
      3          6           0        0.837058    0.159742    3.129726
      4          6           0       -1.486507    2.031676    3.279402
      5          6           0        0.153992    1.910397    0.830831
      6          1           0       -1.878856   -1.016049    2.376928
      7          1           0       -0.955899   -1.003678    0.884315
      8          1           0        1.376708   -0.477943    2.422903
      9          1           0        0.375871   -0.506461    3.864232
     10          1           0       -2.247061    2.505651    2.652706
     11          1           0       -0.809441    2.827098    3.603058
     12          1           0        0.741117    1.269951    0.170262
     13          1           0        0.793211    2.702475    1.222897
     14          1           0       -0.657789    2.364170    0.260897
     15          6           0        1.782009    1.160034    3.807602
     16          1           0        1.262684    1.774450    4.545206
     17          1           0        2.568820    0.615283    4.330645
     18          1           0        2.266292    1.819596    3.085268
     19          6           0       -2.823059    0.121632    0.773025
     20          1           0       -3.395069   -0.729181    0.401119
     21          1           0       -3.483519    0.704320    1.417674
     22          1           0       -2.550382    0.733586   -0.088692
     23          6           0       -2.119878    1.316730    4.479392
     24          1           0       -2.677166    2.037837    5.078332
     25          1           0       -2.819676    0.539147    4.167433
     26          1           0       -1.367221    0.864105    5.127697
 ---------------------------------------------------------------------

 SCF Done:  E(RHF) =  -616.241503898     A.U. after   15 cycles
 E2 =    -0.1550545780D+01 EUMP2 =    -0.61779204967782D+03

 Alpha  occ. eigenvalues --  -80.17411 -11.40527 -11.40526 -11.40474 -11.40099
 Alpha  occ. eigenvalues --  -11.37343 -11.37292 -11.37289  -7.71310  -5.60829
 Alpha  occ. eigenvalues --   -5.60816  -5.60810  -1.25976  -1.19069  -1.18588
 Alpha  occ. eigenvalues --   -1.14610  -1.05481  -1.02069  -1.00245  -0.88872
 Alpha  occ. eigenvalues --   -0.80494  -0.80313  -0.78376  -0.75106  -0.74410
 Alpha  occ. eigenvalues --   -0.73445  -0.72092  -0.71746  -0.70962  -0.68355
 Alpha  occ. eigenvalues --   -0.67419  -0.66794  -0.66408  -0.65354  -0.63526
 Alpha  occ. eigenvalues --   -0.61414  -0.61386
 Alpha virt. eigenvalues --   -0.01713   0.00937   0.01326   0.01637   0.02747
 Alpha virt. eigenvalues --    0.03103   0.04568   0.06131   0.06265   0.06903
 Alpha virt. eigenvalues --    0.08020   0.09207   0.09444   0.09899   0.10721

 Mulliken charges:
               1
     1  P    0.411468
     2  C   -0.306173
     3  C   -0.306093
     4  C   -0.322489
     5  C   -0.415641
     6  H    0.181211
     7  H    0.187311
     8  H    0.187292
     9  H    0.181171
    10  H    0.191299
    11  H    0.191406
    12  H    0.180146
    13  H    0.183597
    14  H    0.183691
    15  C   -0.383992
    16  H    0.146552
    17  H    0.179197
    18  H    0.147759
    19  C   -0.384041
    20  H    0.179232
    21  H    0.146551
    22  H    0.147749
    23  C   -0.381829
    24  H    0.179407
    25  H    0.147588
    26  H    0.147632
 Sum of Mulliken charges =   1.00000

 Dipole moment (field-independent basis, Debye):
    X=             -2.8986    Y=              4.4505    Z=             11.1322  Tot=             12.3343
 Quadrupole moment (field-independent basis, Debye-Ang):
   XX=            -44.9015   YY=            -47.5714   ZZ=            -22.2153
   XY=             -2.0515   XZ=             -5.4050   YZ=             11.4203

 ESP charges:
               1
     1  P    0.365209
     2  C   -0.047302
     3  C   -0.027304
     4  C    0.065921
     5  C   -0.434819
     6  H    0.061562
     7  H    0.077790
     8  H    0.072051
     9  H    0.055513
    10  H    0.047950
    11  H    0.047472
    12  H    0.186807
    13  H    0.164143
    14  H    0.165521
    15  C   -0.141851
    16  H    0.062732
    17  H    0.093937
    18  H    0.061271
    19  C   -0.137310
    20  H    0.094500
    21  H    0.061690
    22  H    0.060949
    23  C   -0.231323
    24  H    0.104251
    25  H    0.085634
    26  H    0.085006
 Sum of ESP charges =   1.00000

 Normal termination of Gaussian 09 at Fri Mar 26 18:41:13 2021.
