 Gaussian 09, Revision E.01,
 Gaussian 09:  ES64L-G09RevE.01 30-Nov-2015

 ----------------------------------------------------------------------
 # freq rb3lyp/6-311+g(d,p) empiricaldispersion=gd3bj int=ultrafine scf
 =conver=10 symmetry=none pop=(minimal,CHELPG,Dipole) guess=read
 ----------------------------------------------------------------------

 -------------------
 Title Card Required
 -------------------
 Symbolic Z-matrix:
 Charge =  1 Multiplicity = 1

                          Input orientation:
 ---------------------------------------------------------------------
 Center     Atomic      Atomic             Coordinates (Angstroms)
 Number     Number       Type             X           Y           Z
 ---------------------------------------------------------------------
      1         15           0       -0.038795   -0.499431    0.699235
      2          6           0       -1.506917    0.207551    1.530574
      3          6           0       -2.704876    0.361902    0.602196
      4          6           0       -4.013750   -0.876582   -0.961816
      5          6           0        1.401854   -0.039328    1.727531
      6          6           0        2.651364   -0.855723    1.417019
      7          6           0        4.020363   -1.518937   -0.421559
      8          6           0        0.127760    0.103867   -1.016375
      9          6           0        0.673957    1.523324   -1.087737
     10          6           0        0.328809    3.687805   -0.137770
     11          6           0       -0.466067    4.393462    0.940358
     12          6           0        4.072702   -1.470089   -1.933636
     13          6           0       -4.062709   -2.215390   -1.666724
     14          6           0       -0.182874   -2.302659    0.658052
     15          1           0       -1.215018    1.180039    1.927637
     16          1           0       -1.742240   -0.461282    2.363500
     17          1           0       -2.530375    1.187745   -0.098273
     18          1           0       -3.596320    0.602090    1.194725
     19          1           0       -3.929819   -0.051548   -1.681940
     20          1           0       -4.918708   -0.711020   -0.364459
     21          1           0        1.108617   -0.173632    2.772647
     22          1           0        1.569202    1.027186    1.566685
     23          1           0        2.545793   -1.885750    1.784829
     24          1           0        3.514670   -0.410267    1.926952
     25          1           0        4.003449   -2.554980   -0.058629
     26          1           0        4.891696   -1.020567    0.020643
     27          1           0       -0.866024    0.025631   -1.460333
     28          1           0        0.799498   -0.586338   -1.526282
     29          1           0        1.747363    1.526214   -0.863267
     30          1           0        0.537619    1.919353   -2.101516
     31          1           0        1.408293    3.774924    0.043832
     32          1           0        0.118765    4.114105   -1.126405
     33          1           0       -1.538340    4.299629    0.755442
     34          1           0       -0.241521    3.979956    1.926696
     35          1           0       -0.215511    5.456253    0.955284
     36          1           0        3.213666   -1.983540   -2.372313
     37          1           0        4.978910   -1.962915   -2.291995
     38          1           0        4.084574   -0.437169   -2.288103
     39          1           0       -3.165697   -2.372354   -2.270744
     40          1           0       -4.147321   -3.030183   -0.944598
     41          1           0       -4.929162   -2.257076   -2.330205
     42          1           0       -0.250664   -2.691825    1.675480
     43          1           0        0.690824   -2.724237    0.160949
     44          1           0       -1.093293   -2.557046    0.117001
     45          8           0       -0.038029    2.301271   -0.140044
     46          8           0       -2.872127   -0.860215   -0.093046
     47          8           0        2.828409   -0.848229    0.014501
 ---------------------------------------------------------------------

 SCF Done:  E(RB3LYP) =  -1080.59323953     A.U. after    7 cycles

 Alpha  occ. eigenvalues --  -77.25597 -19.25582 -19.25325 -19.24979 -10.35806
 Alpha  occ. eigenvalues --  -10.35106 -10.34944 -10.33165 -10.33101 -10.33023
 Alpha  occ. eigenvalues --  -10.32656 -10.32549 -10.32346 -10.31678 -10.26654
 Alpha  occ. eigenvalues --  -10.26599 -10.26124  -6.75077  -4.91127  -4.91100
 Alpha  occ. eigenvalues --   -4.91094  -1.16800  -1.16445  -1.16131  -0.96678
 Alpha  occ. eigenvalues --   -0.91542  -0.91103  -0.88283  -0.85769  -0.85259
 Alpha  occ. eigenvalues --   -0.85144  -0.78809  -0.76236  -0.75112  -0.72930
 Alpha  occ. eigenvalues --   -0.72750  -0.72350  -0.68249  -0.63809  -0.63707
 Alpha  occ. eigenvalues --   -0.62778  -0.62016  -0.61736  -0.60716  -0.59464
 Alpha  occ. eigenvalues --   -0.58317  -0.58226  -0.57402  -0.56933  -0.56052
 Alpha  occ. eigenvalues --   -0.55440  -0.55200  -0.53923  -0.53157  -0.52443
 Alpha  occ. eigenvalues --   -0.50906  -0.50373  -0.49906  -0.49672  -0.48979
 Alpha  occ. eigenvalues --   -0.48725  -0.48267  -0.47979  -0.47618  -0.46800
 Alpha  occ. eigenvalues --   -0.46488  -0.46170  -0.45326  -0.44912  -0.44429
 Alpha  occ. eigenvalues --   -0.39485  -0.39072  -0.38634
 Alpha virt. eigenvalues --   -0.11824  -0.10515  -0.10295  -0.09849  -0.09459
 Alpha virt. eigenvalues --   -0.08994  -0.08343  -0.07523  -0.07384  -0.06863
 Alpha virt. eigenvalues --   -0.06446  -0.05856  -0.05706  -0.05605  -0.05156

 Mulliken charges:
               1
     1  P    1.077198
     2  C   -0.441147
     3  C   -0.424986
     4  C    0.008254
     5  C   -0.489943
     6  C   -0.425832
     7  C   -0.020761
     8  C   -0.277721
     9  C   -0.519738
    10  C   -0.019258
    11  C   -0.526315
    12  C   -0.520666
    13  C   -0.563658
    14  C   -0.903771
    15  H    0.240390
    16  H    0.233160
    17  H    0.176894
    18  H    0.176057
    19  H    0.140505
    20  H    0.154901
    21  H    0.230732
    22  H    0.256324
    23  H    0.167900
    24  H    0.183489
    25  H    0.145749
    26  H    0.157785
    27  H    0.246659
    28  H    0.234118
    29  H    0.180628
    30  H    0.175988
    31  H    0.141559
    32  H    0.158824
    33  H    0.153210
    34  H    0.137796
    35  H    0.169861
    36  H    0.139583
    37  H    0.170047
    38  H    0.153454
    39  H    0.137647
    40  H    0.157719
    41  H    0.167005
    42  H    0.232773
    43  H    0.227831
    44  H    0.266899
    45  O   -0.152105
    46  O   -0.151552
    47  O   -0.163481
 Sum of Mulliken charges =   1.00000

 Dipole moment (field-independent basis, Debye):
    X=              0.8942    Y=             -0.4554    Z=              1.6819  Tot=              1.9585
 Quadrupole moment (field-independent basis, Debye-Ang):
   XX=            -79.6943   YY=            -92.3297   ZZ=            -99.6607
   XY=             -3.0554   XZ=              2.4515   YZ=             -0.2607

  Exact polarizability: 198.186  -3.062 186.240  -0.233   5.224 170.575
 Approx polarizability: 251.768  -1.924 250.358  -0.598   1.240 250.002

 ESP charges:
               1
     1  P    0.574151
     2  C   -0.223704
     3  C    0.166954
     4  C    0.193260
     5  C   -0.198653
     6  C    0.156344
     7  C    0.166965
     8  C   -0.232347
     9  C    0.167795
    10  C    0.144773
    11  C   -0.178025
    12  C   -0.204047
    13  C   -0.157345
    14  C   -0.376663
    15  H    0.079430
    16  H    0.117282
    17  H   -0.001475
    18  H    0.066499
    19  H    0.020419
    20  H    0.026069
    21  H    0.090174
    22  H    0.114368
    23  H    0.010246
    24  H    0.043880
    25  H    0.019633
    26  H    0.032812
    27  H    0.145206
    28  H    0.085399
    29  H   -0.003179
    30  H    0.044409
    31  H    0.027630
    32  H    0.034630
    33  H    0.062651
    34  H    0.052197
    35  H    0.077111
    36  H    0.064408
    37  H    0.083327
    38  H    0.065599
    39  H    0.046763
    40  H    0.066805
    41  H    0.063534
    42  H    0.146661
    43  H    0.152118
    44  H    0.123160
    45  O   -0.287539
    46  O   -0.379937
    47  O   -0.289746
 Sum of ESP charges =   1.00000

                      1                      2                      3
                      A                      A                      A
 Frequencies --     25.2013                29.9319                36.7480
 Red. masses --      3.6384                 3.7177                 3.5173
 Frc consts  --      0.0014                 0.0020                 0.0028
 IR Inten    --      0.1888                 0.2294                 0.0466

                      4                      5                      6
                      A                      A                      A
 Frequencies --     50.2440                59.7427                65.0645
 Red. masses --      2.9615                 2.2842                 2.0018
 Frc consts  --      0.0044                 0.0048                 0.0050
 IR Inten    --      0.8893                 1.7075                 0.3642

                      7                      8                      9
                      A                      A                      A
 Frequencies --     73.4562                79.4768                83.3630
 Red. masses --      2.0146                 2.4003                 2.5142
 Frc consts  --      0.0064                 0.0089                 0.0103
 IR Inten    --      0.3950                 0.5901                 0.5139

                     10                     11                     12
                      A                      A                      A
 Frequencies --    118.6996               121.0313               127.1118
 Red. masses --      4.1045                 3.7609                 3.8580
 Frc consts  --      0.0341                 0.0325                 0.0367
 IR Inten    --      4.4184                 2.1341                 9.8142

                     13                     14                     15
                      A                      A                      A
 Frequencies --    139.7006               164.3827               171.3395
 Red. masses --      3.5430                 2.6481                 2.7164
 Frc consts  --      0.0407                 0.0422                 0.0470
 IR Inten    --      4.8015                 3.3905                 5.7542

                     16                     17                     18
                      A                      A                      A
 Frequencies --    191.7504               206.2803               224.4543
 Red. masses --      1.2005                 2.5414                 2.2552
 Frc consts  --      0.0260                 0.0637                 0.0669
 IR Inten    --      0.5197                 1.4093                 0.9078

                     19                     20                     21
                      A                      A                      A
 Frequencies --    228.4832               245.2510               250.1423
 Red. masses --      3.0058                 2.4775                 1.8058
 Frc consts  --      0.0925                 0.0878                 0.0666
 IR Inten    --      0.2846                 1.4607                 0.6187

                     22                     23                     24
                      A                      A                      A
 Frequencies --    256.7334               257.3720               259.0919
 Red. masses --      1.1973                 1.2219                 1.4374
 Frc consts  --      0.0465                 0.0477                 0.0569
 IR Inten    --      0.8275                 2.1487                 3.2811

                     25                     26                     27
                      A                      A                      A
 Frequencies --    270.8997               302.2292               317.0340
 Red. masses --      2.0315                 2.4743                 2.5516
 Frc consts  --      0.0878                 0.1332                 0.1511
 IR Inten    --      0.7770                 7.5450                 8.6597

                     28                     29                     30
                      A                      A                      A
 Frequencies --    428.7999               430.3204               432.8017
 Red. masses --      2.9895                 3.0786                 2.9723
 Frc consts  --      0.3239                 0.3359                 0.3280
 IR Inten    --      0.7725                 1.2025                 7.2259

                     31                     32                     33
                      A                      A                      A
 Frequencies --    495.0150               514.1821               518.8862
 Red. masses --      2.9282                 2.9550                 2.7979
 Frc consts  --      0.4228                 0.4603                 0.4438
 IR Inten    --      0.7407                 2.1917                 2.9854

                     34                     35                     36
                      A                      A                      A
 Frequencies --    616.1124               705.1546               729.7850
 Red. masses --      2.7570                 3.7880                 3.1935
 Frc consts  --      0.6166                 1.1098                 1.0021
 IR Inten    --      0.8282                 4.3075                 4.7768

                     37                     38                     39
                      A                      A                      A
 Frequencies --    751.4409               782.1174               800.1484
 Red. masses --      2.2569                 1.8598                 1.7161
 Frc consts  --      0.7509                 0.6703                 0.6474
 IR Inten    --      4.5633                 6.4659                22.5849

                     40                     41                     42
                      A                      A                      A
 Frequencies --    816.7824               825.2326               825.3712
 Red. masses --      2.1320                 1.0919                 1.0899
 Frc consts  --      0.8380                 0.4381                 0.4374
 IR Inten    --     24.1526                 1.1765                 0.4281

                     43                     44                     45
                      A                      A                      A
 Frequencies --    825.6621               896.1360               906.5215
 Red. masses --      1.1100                 1.7148                 1.5895
 Frc consts  --      0.4459                 0.8114                 0.7696
 IR Inten    --      4.4444                24.2094                 8.4848

                     46                     47                     48
                      A                      A                      A
 Frequencies --    915.0264               941.8469               948.8564
 Red. masses --      1.9670                 1.7231                 1.6632
 Frc consts  --      0.9703                 0.9006                 0.8823
 IR Inten    --     25.5458                11.7519                17.0725

                     49                     50                     51
                      A                      A                      A
 Frequencies --    982.0996               987.3508              1003.5568
 Red. masses --      2.0163                 2.0077                 2.1953
 Frc consts  --      1.1458                 1.1532                 1.3027
 IR Inten    --      5.5197                 5.3553                 8.7161

                     52                     53                     54
                      A                      A                      A
 Frequencies --   1026.0969              1039.5892              1044.4022
 Red. masses --      1.5795                 1.9894                 2.3678
 Frc consts  --      0.9798                 1.2668                 1.5217
 IR Inten    --     41.4957                22.7280                54.4239

                     55                     56                     57
                      A                      A                      A
 Frequencies --   1056.8384              1060.2260              1064.7785
 Red. masses --      2.6853                 2.0458                 2.0169
 Frc consts  --      1.7671                 1.3549                 1.3473
 IR Inten    --      2.5427                 3.8864                11.4984

                     58                     59                     60
                      A                      A                      A
 Frequencies --   1125.9243              1126.9987              1133.3415
 Red. masses --      6.1752                 5.8294                 5.6818
 Frc consts  --      4.6123                 4.3623                 4.2999
 IR Inten    --    185.4600               152.0429               287.9191

                     61                     62                     63
                      A                      A                      A
 Frequencies --   1136.9730              1138.0757              1138.8396
 Red. masses --      2.1522                 2.1531                 2.1795
 Frc consts  --      1.6392                 1.6431                 1.6654
 IR Inten    --     33.9208                23.1802                24.4406

                     64                     65                     66
                      A                      A                      A
 Frequencies --   1177.7788              1178.5817              1179.0346
 Red. masses --      1.4889                 1.4986                 1.5014
 Frc consts  --      1.2169                 1.2264                 1.2297
 IR Inten    --      2.8859                 7.6707                 5.9902

                     67                     68                     69
                      A                      A                      A
 Frequencies --   1221.9949              1230.0433              1234.4488
 Red. masses --      1.3360                 1.2707                 1.2499
 Frc consts  --      1.1754                 1.1328                 1.1222
 IR Inten    --      2.8871                 6.0347                 9.9451

                     70                     71                     72
                      A                      A                      A
 Frequencies --   1254.6868              1259.1675              1262.9708
 Red. masses --      1.3203                 1.2711                 1.2580
 Frc consts  --      1.2246                 1.1874                 1.1823
 IR Inten    --     34.9386                12.5226                 7.7123

                     73                     74                     75
                      A                      A                      A
 Frequencies --   1303.5608              1303.7638              1304.1505
 Red. masses --      1.1055                 1.1034                 1.1043
 Frc consts  --      1.1068                 1.1050                 1.1066
 IR Inten    --      3.2739                 4.8376                 2.3910

                     76                     77                     78
                      A                      A                      A
 Frequencies --   1316.0918              1321.9606              1327.4193
 Red. masses --      1.2807                 1.2805                 1.2852
 Frc consts  --      1.3070                 1.3184                 1.3343
 IR Inten    --      4.9594                 3.8748                10.1550

                     79                     80                     81
                      A                      A                      A
 Frequencies --   1344.5932              1383.7516              1384.3788
 Red. masses --      1.2426                 1.2217                 1.2143
 Frc consts  --      1.3236                 1.3782                 1.3712
 IR Inten    --     10.2601                35.8024                28.3167

                     82                     83                     84
                      A                      A                      A
 Frequencies --   1386.5783              1412.9158              1413.3255
 Red. masses --      1.2201                 1.2519                 1.2496
 Frc consts  --      1.3821                 1.4725                 1.4707
 IR Inten    --     16.0576                18.5315                 6.3277

                     85                     86                     87
                      A                      A                      A
 Frequencies --   1414.2936              1436.9278              1442.3210
 Red. masses --      1.2522                 1.1636                 1.3360
 Frc consts  --      1.4757                 1.4156                 1.6374
 IR Inten    --     15.0882                 2.7594                11.0233

                     88                     89                     90
                      A                      A                      A
 Frequencies --   1443.1292              1445.8824              1452.3717
 Red. masses --      1.3250                 1.2982                 1.1721
 Frc consts  --      1.6258                 1.5991                 1.4567
 IR Inten    --      7.6008                11.6344                12.1351

                     91                     92                     93
                      A                      A                      A
 Frequencies --   1457.8079              1461.6915              1472.1374
 Red. masses --      1.1166                 1.0548                 1.0514
 Frc consts  --      1.3981                 1.3277                 1.3425
 IR Inten    --      3.2298                 8.8243                12.7850

                     94                     95                     96
                      A                      A                      A
 Frequencies --   1488.2892              1488.3631              1488.4306
 Red. masses --      1.0388                 1.0388                 1.0389
 Frc consts  --      1.3557                 1.3558                 1.3561
 IR Inten    --      8.1922                11.0995                11.4205

                     97                     98                     99
                      A                      A                      A
 Frequencies --   1499.2985              1499.3965              1500.0716
 Red. masses --      1.0516                 1.0511                 1.0515
 Frc consts  --      1.3928                 1.3923                 1.3940
 IR Inten    --      4.6832                 4.5721                 5.7494

                    100                    101                    102
                      A                      A                      A
 Frequencies --   1519.4626              1520.2010              1520.9640
 Red. masses --      1.0846                 1.0832                 1.0839
 Frc consts  --      1.4754                 1.4749                 1.4774
 IR Inten    --      2.8645                 5.9986                 1.5261

                    103                    104                    105
                      A                      A                      A
 Frequencies --   1535.6747              1538.6373              1539.4564
 Red. masses --      1.0822                 1.0815                 1.0819
 Frc consts  --      1.5037                 1.5085                 1.5107
 IR Inten    --      3.5608                10.0778                 5.3545

                    106                    107                    108
                      A                      A                      A
 Frequencies --   2986.3662              2989.5734              2991.2455
 Red. masses --      1.0587                 1.0581                 1.0575
 Frc consts  --      5.5628                 5.5720                 5.5750
 IR Inten    --     16.6773                27.7074                28.2759

                    109                    110                    111
                      A                      A                      A
 Frequencies --   2995.4909              3003.0292              3004.0073
 Red. masses --      1.0583                 1.0558                 1.0558
 Frc consts  --      5.5949                 5.6100                 5.6137
 IR Inten    --     66.8703                38.5130                47.6516

                    112                    113                    114
                      A                      A                      A
 Frequencies --   3024.0803              3027.2533              3027.7049
 Red. masses --      1.1023                 1.1041                 1.1048
 Frc consts  --      5.9393                 5.9613                 5.9673
 IR Inten    --     35.4338                34.7735                32.2301

                    115                    116                    117
                      A                      A                      A
 Frequencies --   3030.1111              3035.4661              3038.0265
 Red. masses --      1.1063                 1.1033                 1.0427
 Frc consts  --      5.9848                 5.9896                 5.6704
 IR Inten    --     13.3977                10.2527                14.7568

                    118                    119                    120
                      A                      A                      A
 Frequencies --   3038.4894              3038.7229              3038.8242
 Red. masses --      1.1005                 1.0363                 1.0363
 Frc consts  --      5.9864                 5.6381                 5.6385
 IR Inten    --     11.6424                11.6025                12.0355

                    121                    122                    123
                      A                      A                      A
 Frequencies --   3055.2959              3058.0562              3060.9726
 Red. masses --      1.0342                 1.0661                 1.0624
 Frc consts  --      5.6879                 5.8740                 5.8651
 IR Inten    --      2.9642                 6.6059                 2.1012

                    124                    125                    126
                      A                      A                      A
 Frequencies --   3082.7350              3105.5550              3106.7265
 Red. masses --      1.0601                 1.1028                 1.1027
 Frc consts  --      5.9355                 6.2663                 6.2707
 IR Inten    --      2.0298                27.4709                50.0450

                    127                    128                    129
                      A                      A                      A
 Frequencies --   3106.8108              3113.2263              3113.5187
 Red. masses --      1.1028                 1.1017                 1.1021
 Frc consts  --      6.2715                 6.2913                 6.2947
 IR Inten    --      5.7760                17.4214                13.4803

                    130                    131                    132
                      A                      A                      A
 Frequencies --   3113.5859              3113.7476              3127.5602
 Red. masses --      1.1017                 1.1016                 1.0996
 Frc consts  --      6.2928                 6.2925                 6.3373
 IR Inten    --     18.9224                 0.1322                 0.0646

                    133                    134                    135
                      A                      A                      A
 Frequencies --   3138.7511              3140.0305              3159.8086
 Red. masses --      1.1037                 1.1030                 1.1041
 Frc consts  --      6.4062                 6.4078                 6.4952
 IR Inten    --      0.7049                 0.2743                 4.7767

 - Thermochemistry -
 -------------------
 Temperature   298.150 Kelvin.  Pressure   1.00000 Atm.
 Atom     1 has atomic number 15 and mass  30.97376

 Molecular mass:   265.19326 amu.
 Principal axes and moments of inertia in atomic units:
                           1         2         3
     Eigenvalues --  4355.284676511.598088715.02469
           X            0.99816   0.05308  -0.02948
           Y           -0.05729   0.98417  -0.16774
           Z            0.02011   0.16912   0.98539
 This molecule is an asymmetric top.
 Rotational symmetry number  1.
 Warning -- assumption of classical behavior for rotation
           may cause significant error
 Rotational temperatures (Kelvin)      0.01989     0.01330     0.00994
 Rotational constants (GHZ):           0.41438     0.27716     0.20708
 Zero-point vibrational energy    1111075.3 (Joules/Mol)
                                  265.55337 (Kcal/Mol)
 Warning -- explicit consideration of  34 degrees of freedom as
           vibrations may cause significant error
 Vibrational temperatures:     36.26    43.07    52.87    72.29    85.96
          (Kelvin)             93.61   105.69   114.35   119.94   170.78
                              174.14   182.89   201.00   236.51   246.52
                              275.89   296.79   322.94   328.74   352.86
                              359.90   369.38   370.30   372.77   389.76
                              434.84   456.14   616.95   619.13   622.70
                              712.22   739.79   746.56   886.45  1014.56
                             1050.00  1081.15  1125.29  1151.23  1175.17
                             1187.32  1187.52  1187.94  1289.34  1304.28
                             1316.52  1355.11  1365.19  1413.02  1420.58
                             1443.89  1476.32  1495.74  1502.66  1520.55
                             1525.43  1531.98  1619.95  1621.50  1630.62
                             1635.85  1637.44  1638.53  1694.56  1695.71
                             1696.37  1758.18  1769.76  1776.09  1805.21
                             1811.66  1817.13  1875.53  1875.82  1876.38
                             1893.56  1902.00  1909.86  1934.57  1990.91
                             1991.81  1994.97  2032.87  2033.46  2034.85
                             2067.42  2075.18  2076.34  2080.30  2089.64
                             2097.46  2103.05  2118.07  2141.31  2141.42
                             2141.52  2157.15  2157.29  2158.27  2186.17
                             2187.23  2188.33  2209.49  2213.75  2214.93
                             4296.71  4301.32  4303.73  4309.84  4320.68
                             4322.09  4350.97  4355.54  4356.19  4359.65
                             4367.35  4371.04  4371.70  4372.04  4372.18
                             4395.88  4399.86  4404.05  4435.36  4468.20
                             4469.88  4470.00  4479.23  4479.65  4479.75
                             4479.98  4499.86  4515.96  4517.80  4546.25

 Zero-point correction=                           0.423186 (Hartree/Particle)
 Thermal correction to Energy=                    0.446682
 Thermal correction to Enthalpy=                  0.447626
 Thermal correction to Gibbs Free Energy=         0.368444
 Sum of electronic and zero-point Energies=          -1080.170053
 Sum of electronic and thermal Energies=             -1080.146558
 Sum of electronic and thermal Enthalpies=           -1080.145614
 Sum of electronic and thermal Free Energies=        -1080.224796

                     E (Thermal)             CV                S
                      KCal/Mol        Cal/Mol-Kelvin    Cal/Mol-Kelvin
 Total                  280.297             83.226            166.653
 Electronic               0.000              0.000              0.000
 Translational            0.889              2.981             42.625
 Rotational               0.889              2.981             33.868
 Vibrational            278.520             77.264             90.159
 Vibration     1          0.593              1.985              6.175
 Vibration     2          0.594              1.984              5.834
 Vibration     3          0.594              1.982              5.427
 Vibration     4          0.595              1.977              4.808
 Vibration     5          0.597              1.973              4.466
 Vibration     6          0.597              1.971              4.297
 Vibration     7          0.599              1.967              4.059
 Vibration     8          0.600              1.963              3.904
 Vibration     9          0.600              1.961              3.810
 Vibration    10          0.609              1.934              3.121
 Vibration    11          0.609              1.932              3.084
 Vibration    12          0.611              1.926              2.989
 Vibration    13          0.615              1.914              2.808
 Vibration    14          0.623              1.886              2.499
 Vibration    15          0.626              1.878              2.421
 Vibration    16          0.634              1.851              2.211
 Vibration    17          0.641              1.831              2.076
 Vibration    18          0.649              1.804              1.923
 Vibration    19          0.651              1.798              1.891
 Vibration    20          0.660              1.771              1.764
 Vibration    21          0.663              1.763              1.730
 Vibration    22          0.666              1.751              1.684
 Vibration    23          0.667              1.750              1.680
 Vibration    24          0.668              1.747              1.668
 Vibration    25          0.675              1.727              1.590
 Vibration    26          0.694              1.669              1.405
 Vibration    27          0.704              1.641              1.325
 Vibration    28          0.790              1.408              0.863
 Vibration    29          0.792              1.404              0.858
 Vibration    30          0.794              1.399              0.850
 Vibration    31          0.851              1.261              0.671
 Vibration    32          0.869              1.219              0.624
 Vibration    33          0.874              1.208              0.613
 Vibration    34          0.976              0.998              0.423

 Optimization completed.
    -- Stationary point found.
 Normal termination of Gaussian 09 at Mon Nov 30 20:22:34 2020.
