 Gaussian 09, Revision E.01,
 Gaussian 09:  ES64L-G09RevE.01 30-Nov-2015

 ----------------------------------------------------------------------
 # RMP2=(semidirect,full)/cc-pVTZ int=ultrafine symmetry=none scf=conve
 r=11 Density=current pop=(minimal,CHELPG,Dipole)
 ----------------------------------------------------------------------

 -------------------
 Title Card Required
 -------------------
 Symbolic Z-matrix:
 Charge =  1 Multiplicity = 1

                          Input orientation:
 ---------------------------------------------------------------------
 Center     Atomic      Atomic             Coordinates (Angstroms)
 Number     Number       Type             X           Y           Z
 ---------------------------------------------------------------------
      1         15           0       -0.038795   -0.499431    0.699235
      2          6           0       -1.506917    0.207551    1.530574
      3          6           0       -2.704876    0.361902    0.602196
      4          6           0       -4.013750   -0.876582   -0.961816
      5          6           0        1.401854   -0.039328    1.727531
      6          6           0        2.651364   -0.855723    1.417019
      7          6           0        4.020363   -1.518937   -0.421559
      8          6           0        0.127760    0.103867   -1.016375
      9          6           0        0.673957    1.523324   -1.087737
     10          6           0        0.328809    3.687805   -0.137770
     11          6           0       -0.466067    4.393462    0.940358
     12          6           0        4.072702   -1.470089   -1.933636
     13          6           0       -4.062709   -2.215390   -1.666724
     14          6           0       -0.182874   -2.302659    0.658052
     15          1           0       -1.215018    1.180039    1.927637
     16          1           0       -1.742240   -0.461282    2.363500
     17          1           0       -2.530375    1.187745   -0.098273
     18          1           0       -3.596320    0.602090    1.194725
     19          1           0       -3.929819   -0.051548   -1.681940
     20          1           0       -4.918708   -0.711020   -0.364459
     21          1           0        1.108617   -0.173632    2.772647
     22          1           0        1.569202    1.027186    1.566685
     23          1           0        2.545793   -1.885750    1.784829
     24          1           0        3.514670   -0.410267    1.926952
     25          1           0        4.003449   -2.554980   -0.058629
     26          1           0        4.891696   -1.020567    0.020643
     27          1           0       -0.866024    0.025631   -1.460333
     28          1           0        0.799498   -0.586338   -1.526282
     29          1           0        1.747363    1.526214   -0.863267
     30          1           0        0.537619    1.919353   -2.101516
     31          1           0        1.408293    3.774924    0.043832
     32          1           0        0.118765    4.114105   -1.126405
     33          1           0       -1.538340    4.299629    0.755442
     34          1           0       -0.241521    3.979956    1.926696
     35          1           0       -0.215511    5.456253    0.955284
     36          1           0        3.213666   -1.983540   -2.372313
     37          1           0        4.978910   -1.962915   -2.291995
     38          1           0        4.084574   -0.437169   -2.288103
     39          1           0       -3.165697   -2.372354   -2.270744
     40          1           0       -4.147321   -3.030183   -0.944598
     41          1           0       -4.929162   -2.257076   -2.330205
     42          1           0       -0.250664   -2.691825    1.675480
     43          1           0        0.690824   -2.724237    0.160949
     44          1           0       -1.093293   -2.557046    0.117001
     45          8           0       -0.038029    2.301271   -0.140044
     46          8           0       -2.872127   -0.860215   -0.093046
     47          8           0        2.828409   -0.848229    0.014501
 ---------------------------------------------------------------------

 SCF Done:  E(RHF) =  -1075.17228720     A.U. after   17 cycles
 E2 =    -0.3428556981D+01 EUMP2 =    -0.10786008441854D+04

 Alpha  occ. eigenvalues --  -80.15180 -20.68297 -20.68020 -20.67609 -11.41436
 Alpha  occ. eigenvalues --  -11.40728 -11.40521 -11.38783 -11.38630 -11.38230
 Alpha  occ. eigenvalues --  -11.38218 -11.37653 -11.37441 -11.36923 -11.31878
 Alpha  occ. eigenvalues --  -11.31817 -11.31320  -7.68975  -5.58500  -5.58483
 Alpha  occ. eigenvalues --   -5.58479  -1.50101  -1.49734  -1.49360  -1.23010
 Alpha  occ. eigenvalues --   -1.17527  -1.17081  -1.13541  -1.11032  -1.10485
 Alpha  occ. eigenvalues --   -1.10172  -1.01277  -0.98149  -0.96859  -0.94835
 Alpha  occ. eigenvalues --   -0.94648  -0.94219  -0.86528  -0.81355  -0.81286
 Alpha  occ. eigenvalues --   -0.79752  -0.79048  -0.78572  -0.77792  -0.75384
 Alpha  occ. eigenvalues --   -0.74708  -0.74299  -0.73287  -0.72612  -0.71676
 Alpha  occ. eigenvalues --   -0.70782  -0.70374  -0.68877  -0.68100  -0.67389
 Alpha  occ. eigenvalues --   -0.65432  -0.64996  -0.64425  -0.63542  -0.63029
 Alpha  occ. eigenvalues --   -0.62821  -0.62002  -0.61607  -0.61223  -0.60675
 Alpha  occ. eigenvalues --   -0.60177  -0.59885  -0.59589  -0.59108  -0.58307
 Alpha  occ. eigenvalues --   -0.55015  -0.54526  -0.54064
 Alpha virt. eigenvalues --    0.00979   0.02838   0.02925   0.03413   0.03845
 Alpha virt. eigenvalues --    0.04759   0.05377   0.06196   0.06842   0.07968
 Alpha virt. eigenvalues --    0.08566   0.08922   0.09142   0.09240   0.09653

 Mulliken charges:
               1
     1  P    0.490726
     2  C   -0.302522
     3  C   -0.101622
     4  C   -0.064395
     5  C   -0.344719
     6  C   -0.090135
     7  C   -0.064085
     8  C   -0.310185
     9  C   -0.106418
    10  C   -0.066932
    11  C   -0.372907
    12  C   -0.373883
    13  C   -0.368554
    14  C   -0.446913
    15  H    0.184606
    16  H    0.176578
    17  H    0.129883
    18  H    0.150558
    19  H    0.104597
    20  H    0.122073
    21  H    0.186575
    22  H    0.184301
    23  H    0.129860
    24  H    0.152096
    25  H    0.108567
    26  H    0.119700
    27  H    0.193220
    28  H    0.193613
    29  H    0.135477
    30  H    0.151960
    31  H    0.108281
    32  H    0.122519
    33  H    0.135681
    34  H    0.123392
    35  H    0.153449
    36  H    0.125509
    37  H    0.153896
    38  H    0.135703
    39  H    0.122582
    40  H    0.135433
    41  H    0.151161
    42  H    0.168994
    43  H    0.172945
    44  H    0.198630
    45  O   -0.304794
    46  O   -0.305625
    47  O   -0.298875
 Sum of Mulliken charges =   1.00000

 Dipole moment (field-independent basis, Debye):
    X=              0.8442    Y=             -0.5320    Z=              1.6959  Tot=              1.9677
 Quadrupole moment (field-independent basis, Debye-Ang):
   XX=            -80.0370   YY=            -92.3746   ZZ=            -99.8777
   XY=             -2.8690   XZ=              2.2523   YZ=             -0.2222

 ESP charges:
               1
     1  P    0.530117
     2  C   -0.200202
     3  C    0.139714
     4  C    0.182594
     5  C   -0.170875
     6  C    0.124683
     7  C    0.167490
     8  C   -0.196337
     9  C    0.123132
    10  C    0.140770
    11  C   -0.186774
    12  C   -0.211509
    13  C   -0.165597
    14  C   -0.384823
    15  H    0.075202
    16  H    0.115483
    17  H    0.001829
    18  H    0.068751
    19  H    0.021259
    20  H    0.026892
    21  H    0.088112
    22  H    0.107294
    23  H    0.016435
    24  H    0.050049
    25  H    0.018689
    26  H    0.032150
    27  H    0.134463
    28  H    0.083217
    29  H    0.006370
    30  H    0.052815
    31  H    0.028025
    32  H    0.035090
    33  H    0.065806
    34  H    0.054826
    35  H    0.080852
    36  H    0.066523
    37  H    0.086299
    38  H    0.068127
    39  H    0.047712
    40  H    0.068551
    41  H    0.068337
    42  H    0.154095
    43  H    0.154317
    44  H    0.129024
    45  O   -0.268428
    46  O   -0.352227
    47  O   -0.278322
 Sum of ESP charges =   1.00000

 Normal termination of Gaussian 09 at Sun Nov 29 22:09:09 2020.
