 Gaussian 09, Revision E.01,
 Gaussian 09:  ES64L-G09RevE.01 30-Nov-2015

 ----------------------------------------------------------------------
 # opt=(maxcycles=400,verytight) freq EmpiricalDispersion=GD3BJ rb3lyp/
 6-311+g(d,p) int=ultrafine symmetry=none scf=(conver=10) pop=(minimal,
 CHELPG,Dipole)
 ----------------------------------------------------------------------

 -------------------
 Title Card Required
 -------------------
 Symbolic Z-matrix:
 Charge =  1 Multiplicity = 1

 SCF Done:  E(RB3LYP) =  -736.892996155     A.U. after   19 cycles
 Optimization completed.
    -- Stationary point found.
 Normal termination of Gaussian 09 at Fri Mar 26 17:24:50 2021.

 ----------------------------------------------------------------------
 #N Geom=AllCheck Guess=TCheck SCRF=Check GenChk RB3LYP/6-311+G(d,p) Fr
 eq
 ----------------------------------------------------------------------

 Structure from the checkpoint file:  "P3331.chk"
 -------------------
 Title Card Required
 -------------------
 Charge =  1 Multiplicity = 1

                          Input orientation:
 ---------------------------------------------------------------------
 Center     Atomic      Atomic             Coordinates (Angstroms)
 Number     Number       Type             X           Y           Z
 ---------------------------------------------------------------------
      1         15           0       -0.517529    0.922409    2.196475
      2          6           0       -1.578602   -0.419529    1.574880
      3          6           0       -2.817233    0.051645    0.795652
      4          6           0        0.821579    0.193483    3.190565
      5          6           0        1.747433    1.216780    3.868326
      6          6           0       -1.492953    2.078663    3.205574
      7          6           0       -2.155299    1.431870    4.432364
      8          6           0        0.191976    1.829277    0.797515
      9          1           0       -1.871870   -1.019658    2.441736
     10          1           0       -0.944482   -1.058051    0.950805
     11          1           0       -2.510601    0.671502   -0.052261
     12          1           0       -3.439696    0.680362    1.439136
     13          1           0        1.388376   -0.462169    2.521122
     14          1           0        0.347678   -0.452818    3.935745
     15          1           0        1.163297    1.855562    4.537312
     16          1           0        2.194180    1.871973    3.114472
     17          1           0       -2.243571    2.523873    2.545495
     18          1           0       -0.820244    2.887856    3.505436
     19          1           0       -2.811597    0.617152    4.111503
     20          1           0       -1.389269    0.985655    5.073871
     21          1           0        0.784264    1.152199    0.179514
     22          1           0        0.831830    2.633420    1.162823
     23          1           0       -0.606247    2.260998    0.192522
     24          6           0        2.855944    0.523053    4.663200
     25          1           0        3.478799   -0.097488    4.014087
     26          1           0        3.502528    1.259829    5.142618
     27          1           0        2.439569   -0.116869    5.445358
     28          6           0       -3.640416   -1.134926    0.289379
     29          1           0       -4.518278   -0.787126   -0.257551
     30          1           0       -3.053565   -1.764359   -0.384275
     31          1           0       -3.986851   -1.757431    1.118308
     32          6           0       -2.962969    2.454426    5.234364
     33          1           0       -3.757808    2.894038    4.626464
     34          1           0       -3.427197    1.982329    6.101743
     35          1           0       -2.325578    3.265628    5.595240
 ---------------------------------------------------------------------

 SCF Done:  E(RB3LYP) =  -736.892996155     A.U. after    3 cycles

 Alpha  occ. eigenvalues --  -77.27039 -10.34290 -10.34288 -10.34243 -10.34178
 Alpha  occ. eigenvalues --  -10.31907 -10.31854 -10.31852 -10.28252 -10.28183
 Alpha  occ. eigenvalues --  -10.28182  -6.76611  -4.92658  -4.92624  -4.92622
 Alpha  occ. eigenvalues --   -0.99031  -0.93872  -0.93539  -0.90443  -0.85543
 Alpha  occ. eigenvalues --   -0.83500  -0.82931  -0.75039  -0.74339  -0.73347
 Alpha  occ. eigenvalues --   -0.70250  -0.63643  -0.63490  -0.62280  -0.60044
 Alpha  occ. eigenvalues --   -0.59196  -0.57700  -0.56908  -0.56193  -0.56011
 Alpha  occ. eigenvalues --   -0.55412  -0.53517  -0.53466  -0.53301  -0.52905
 Alpha  occ. eigenvalues --   -0.50036  -0.49006  -0.48589  -0.48051  -0.47750
 Alpha  occ. eigenvalues --   -0.47654  -0.47484  -0.47430  -0.46637
 Alpha virt. eigenvalues --   -0.13416  -0.11818  -0.11531  -0.11023  -0.10339
 Alpha virt. eigenvalues --   -0.10025  -0.09245  -0.08329  -0.07970  -0.07549
 Alpha virt. eigenvalues --   -0.07299  -0.07119  -0.06137  -0.05737  -0.05248

 Mulliken charges:
               1
     1  P    1.143408
     2  C   -0.357635
     3  C   -0.268456
     4  C   -0.356722
     5  C   -0.269186
     6  C   -0.256680
     7  C   -0.378843
     8  C   -0.833865
     9  H    0.231991
    10  H    0.221990
    11  H    0.162617
    12  H    0.168032
    13  H    0.222000
    14  H    0.231954
    15  H    0.167878
    16  H    0.162826
    17  H    0.226252
    18  H    0.226254
    19  H    0.171451
    20  H    0.171716
    21  H    0.232403
    22  H    0.232385
    23  H    0.232251
    24  C   -0.630114
    25  H    0.153319
    26  H    0.172285
    27  H    0.151045
    28  C   -0.630296
    29  H    0.172286
    30  H    0.153319
    31  H    0.151057
    32  C   -0.654906
    33  H    0.152904
    34  H    0.172066
    35  H    0.153013
 Sum of Mulliken charges =   1.00000

 Dipole moment (field-independent basis, Debye):
    X=             -3.1407    Y=              4.3411    Z=             11.5533  Tot=             12.7353
 Quadrupole moment (field-independent basis, Debye-Ang):
   XX=            -59.7187   YY=            -67.0661   ZZ=            -36.7937
   XY=             -1.7095   XZ=             -4.9624   YZ=             13.0253

  Exact polarizability: 149.110   2.455 124.662   8.444   7.987 139.799
 Approx polarizability: 191.186   0.727 185.718   1.955   1.552 189.184

 ESP charges:
               1
     1  P    0.410276
     2  C   -0.181052
     3  C    0.199871
     4  C   -0.195882
     5  C    0.198352
     6  C   -0.074832
     7  C    0.156486
     8  C   -0.389845
     9  H    0.073634
    10  H    0.098056
    11  H   -0.007420
    12  H   -0.004890
    13  H    0.102236
    14  H    0.078975
    15  H   -0.002939
    16  H   -0.006462
    17  H    0.054758
    18  H    0.055698
    19  H    0.002251
    20  H    0.002301
    21  H    0.167231
    22  H    0.151811
    23  H    0.150346
    24  C   -0.269849
    25  H    0.081053
    26  H    0.090855
    27  H    0.084814
    28  C   -0.269694
    29  H    0.091105
    30  H    0.080100
    31  H    0.084545
    32  C   -0.270169
    33  H    0.083116
    34  H    0.092337
    35  H    0.082828
 Sum of ESP charges =   1.00000

                      1                      2                      3
                      A                      A                      A
 Frequencies --     42.0693                52.6757                58.7760
 Red. masses --      2.9843                 3.0776                 1.6163
 Frc consts  --      0.0031                 0.0050                 0.0033
 IR Inten    --      0.2110                 0.7114                 0.0274

                      4                      5                      6
                      A                      A                      A
 Frequencies --     70.3146                77.4938                80.4096
 Red. masses --      1.7368                 3.0134                 1.6280
 Frc consts  --      0.0051                 0.0107                 0.0062
 IR Inten    --      0.1753                 0.7462                 0.0026

                      7                      8                      9
                      A                      A                      A
 Frequencies --    118.5828               136.0784               177.0672
 Red. masses --      2.1709                 2.8391                 1.1784
 Frc consts  --      0.0180                 0.0310                 0.0218
 IR Inten    --      0.0132                 0.3581                 0.0040

                     10                     11                     12
                      A                      A                      A
 Frequencies --    183.5375               229.2086               238.2266
 Red. masses --      2.2202                 1.7519                 1.7463
 Frc consts  --      0.0441                 0.0542                 0.0584
 IR Inten    --      0.0003                 0.0324                 0.4125

                     13                     14                     15
                      A                      A                      A
 Frequencies --    248.9605               253.8534               255.2616
 Red. masses --      1.1172                 1.3399                 1.2873
 Frc consts  --      0.0408                 0.0509                 0.0494
 IR Inten    --      0.0353                 0.0413                 0.0045

                     16                     17                     18
                      A                      A                      A
 Frequencies --    271.5113               279.0316               290.0724
 Red. masses --      3.9079                 2.3744                 2.7236
 Frc consts  --      0.1697                 0.1089                 0.1350
 IR Inten    --      0.1936                 0.0213                 0.0009

                     19                     20                     21
                      A                      A                      A
 Frequencies --    341.4232               373.0875               422.5947
 Red. masses --      3.0634                 3.2853                 3.5088
 Frc consts  --      0.2104                 0.2694                 0.3692
 IR Inten    --      4.0666                 4.5933                 7.9339

                     22                     23                     24
                      A                      A                      A
 Frequencies --    666.6142               703.8120               725.0119
 Red. masses --      3.1221                 1.1649                 1.4112
 Frc consts  --      0.8174                 0.3400                 0.4371
 IR Inten    --      0.0794                 2.3324                 5.8934

                     25                     26                     27
                      A                      A                      A
 Frequencies --    730.9788               748.9770               761.5840
 Red. masses --      1.2240                 2.5918                 2.2667
 Frc consts  --      0.3853                 0.8566                 0.7746
 IR Inten    --      3.3945                 7.0697                14.7473

                     28                     29                     30
                      A                      A                      A
 Frequencies --    806.4607               817.3262               860.9595
 Red. masses --      2.3038                 1.1905                 1.6287
 Frc consts  --      0.8828                 0.4685                 0.7113
 IR Inten    --      7.5530                 1.0817                 8.5087

                     31                     32                     33
                      A                      A                      A
 Frequencies --    863.0036               900.2262               913.9938
 Red. masses --      1.3207                 1.8150                 2.0310
 Frc consts  --      0.5795                 0.8666                 0.9997
 IR Inten    --      3.0609                 0.7305                 3.9919

                     34                     35                     36
                      A                      A                      A
 Frequencies --    915.7248               935.1563               938.4708
 Red. masses --      1.9635                 1.4453                 1.4920
 Frc consts  --      0.9701                 0.7447                 0.7742
 IR Inten    --      0.4332                29.8687                31.0536

                     37                     38                     39
                      A                      A                      A
 Frequencies --   1036.5751              1039.0479              1040.4316
 Red. masses --      2.6642                 2.9740                 3.0035
 Frc consts  --      1.6866                 1.8918                 1.9156
 IR Inten    --      1.2735                 0.2945                 0.6634

                     40                     41                     42
                      A                      A                      A
 Frequencies --   1049.7751              1075.0332              1085.6854
 Red. masses --      1.2698                 1.3052                 1.3643
 Frc consts  --      0.8245                 0.8888                 0.9474
 IR Inten    --      2.4946                 3.5732                17.0703

                     43                     44                     45
                      A                      A                      A
 Frequencies --   1094.9551              1105.7556              1113.0540
 Red. masses --      1.7086                 1.9069                 2.0373
 Frc consts  --      1.2069                 1.3737                 1.4871
 IR Inten    --     63.8643                25.1737                 3.3912

                     46                     47                     48
                      A                      A                      A
 Frequencies --   1242.6986              1247.3907              1250.2205
 Red. masses --      1.3917                 1.3527                 1.3579
 Frc consts  --      1.2663                 1.2401                 1.2505
 IR Inten    --      0.0754                 0.5326                 1.7753

                     49                     50                     51
                      A                      A                      A
 Frequencies --   1267.0779              1270.2812              1285.9027
 Red. masses --      1.3276                 1.3561                 1.3231
 Frc consts  --      1.2559                 1.2893                 1.2890
 IR Inten    --      3.2452                 8.2050                 2.8316

                     52                     53                     54
                      A                      A                      A
 Frequencies --   1332.5251              1338.3469              1339.0229
 Red. masses --      1.0885                 1.0846                 1.0869
 Frc consts  --      1.1387                 1.1446                 1.1482
 IR Inten    --      0.0036                 0.0327                 0.0735

                     55                     56                     57
                      A                      A                      A
 Frequencies --   1353.8819              1373.6715              1375.5973
 Red. masses --      1.2029                 1.3848                 1.3906
 Frc consts  --      1.2991                 1.5396                 1.5504
 IR Inten    --     20.6199                 3.4464                 0.9092

                     58                     59                     60
                      A                      A                      A
 Frequencies --   1381.7395              1424.0854              1424.2051
 Red. masses --      1.3857                 1.2136                 1.2135
 Frc consts  --      1.5588                 1.4501                 1.4502
 IR Inten    --      0.1118                 3.6472                 1.4883

                     61                     62                     63
                      A                      A                      A
 Frequencies --   1424.7445              1448.2849              1456.2267
 Red. masses --      1.2133                 1.0695                 1.0706
 Frc consts  --      1.4511                 1.3217                 1.3376
 IR Inten    --      1.1817                 0.5739                 5.7004

                     64                     65                     66
                      A                      A                      A
 Frequencies --   1459.2559              1462.4919              1467.1735
 Red. masses --      1.0766                 1.0518                 1.0567
 Frc consts  --      1.3507                 1.3255                 1.3402
 IR Inten    --      0.5296                 5.3835                34.0229

                     67                     68                     69
                      A                      A                      A
 Frequencies --   1490.6736              1493.6830              1495.9100
 Red. masses --      1.0508                 1.0433                 1.0383
 Frc consts  --      1.3757                 1.3715                 1.3689
 IR Inten    --      1.1119                 8.2677                 1.3103

                     70                     71                     72
                      A                      A                      A
 Frequencies --   1500.5391              1500.8064              1500.8901
 Red. masses --      1.0379                 1.0377                 1.0377
 Frc consts  --      1.3770                 1.3772                 1.3773
 IR Inten    --      8.3856                15.6505                14.6860

                     73                     74                     75
                      A                      A                      A
 Frequencies --   1505.7988              1507.2007              1510.6053
 Red. masses --      1.0774                 1.0851                 1.0913
 Frc consts  --      1.4393                 1.4523                 1.4672
 IR Inten    --     25.4498                 0.2103                 1.2675

                     76                     77                     78
                      A                      A                      A
 Frequencies --   3028.8454              3029.1653              3031.1041
 Red. masses --      1.0582                 1.0576                 1.0568
 Frc consts  --      5.7195                 5.7176                 5.7207
 IR Inten    --     17.1863                 1.1990                 2.5311

                     79                     80                     81
                      A                      A                      A
 Frequencies --   3035.5027              3035.8820              3036.4441
 Red. masses --      1.0407                 1.0377                 1.0392
 Frc consts  --      5.6496                 5.6350                 5.6450
 IR Inten    --     17.5114                26.0047                 4.0817

                     82                     83                     84
                      A                      A                      A
 Frequencies --   3040.3714              3042.0279              3046.1953
 Red. masses --      1.0552                 1.0575                 1.0585
 Frc consts  --      5.7472                 5.7659                 5.7871
 IR Inten    --      0.0824                11.1446                20.6961

                     85                     86                     87
                      A                      A                      A
 Frequencies --   3053.4262              3058.5323              3061.5460
 Red. masses --      1.0346                 1.1037                 1.1026
 Frc consts  --      5.6831                 6.0830                 6.0892
 IR Inten    --      1.8807                 2.6038                 2.5086

                     88                     89                     90
                      A                      A                      A
 Frequencies --   3061.8431              3083.4461              3086.8327
 Red. masses --      1.1013                 1.1035                 1.1031
 Frc consts  --      6.0828                 6.1816                 6.1929
 IR Inten    --      6.5900                 0.4371                 0.9369

                     91                     92                     93
                      A                      A                      A
 Frequencies --   3088.8481              3102.7416              3103.7835
 Red. masses --      1.1040                 1.1036                 1.1036
 Frc consts  --      6.2061                 6.2600                 6.2640
 IR Inten    --      0.2250                20.4801                55.6606

                     94                     95                     96
                      A                      A                      A
 Frequencies --   3104.0601              3114.2466              3114.3071
 Red. masses --      1.1037                 1.1016                 1.1016
 Frc consts  --      6.2655                 6.2945                 6.2948
 IR Inten    --      8.1806                10.3235                13.1583

                     97                     98                     99
                      A                      A                      A
 Frequencies --   3114.3679              3137.7405              3141.7628
 Red. masses --      1.1015                 1.1036                 1.1031
 Frc consts  --      6.2950                 6.4014                 6.4153
 IR Inten    --     14.1997                 0.1342                 0.0441

 - Thermochemistry -
 -------------------
 Temperature   298.150 Kelvin.  Pressure   1.00000 Atm.
 Atom     1 has atomic number 15 and mass  30.97376

 Molecular mass:   175.16156 amu.
 Principal axes and moments of inertia in atomic units:
                           1         2         3
     Eigenvalues --  1909.985273250.410714284.78340
           X            0.81229  -0.57711   0.08443
           Y            0.20655   0.42000   0.88371
           Z            0.54546   0.70039  -0.46036
 This molecule is an asymmetric top.
 Rotational symmetry number  1.
 Warning -- assumption of classical behavior for rotation
           may cause significant error
 Rotational temperatures (Kelvin)      0.04535     0.02665     0.02021
 Rotational constants (GHZ):           0.94490     0.55523     0.42120
 Zero-point vibrational energy     849425.2 (Joules/Mol)
                                  203.01749 (Kcal/Mol)
 Warning -- explicit consideration of  21 degrees of freedom as
           vibrations may cause significant error
 Vibrational temperatures:     60.53    75.79    84.57   101.17   111.50
          (Kelvin)            115.69   170.61   195.79   254.76   264.07
                              329.78   342.75   358.20   365.24   367.26
                              390.64   401.46   417.35   491.23   536.79
                              608.02   959.11  1012.63  1043.13  1051.71
                             1077.61  1095.75  1160.32  1175.95  1238.73
                             1241.67  1295.22  1315.03  1317.52  1345.48
                             1350.25  1491.40  1494.96  1496.95  1510.39
                             1546.73  1562.06  1575.39  1590.93  1601.43
                             1787.96  1794.71  1798.79  1823.04  1827.65
                             1850.12  1917.20  1925.58  1926.55  1947.93
                             1976.40  1979.18  1988.01  2048.94  2049.11
                             2049.89  2083.76  2095.18  2099.54  2104.20
                             2110.93  2144.74  2149.07  2152.28  2158.94
                             2159.32  2159.44  2166.51  2168.52  2173.42
                             4357.83  4358.29  4361.08  4367.41  4367.95
                             4368.76  4374.41  4376.79  4382.79  4393.19
                             4400.54  4404.88  4405.30  4436.39  4441.26
                             4444.16  4464.15  4465.65  4466.04  4480.70
                             4480.79  4480.88  4514.50  4520.29

 Zero-point correction=                           0.323529 (Hartree/Particle)
 Thermal correction to Energy=                    0.340194
 Thermal correction to Enthalpy=                  0.341138
 Thermal correction to Gibbs Free Energy=         0.278953
 Sum of electronic and zero-point Energies=           -736.569467
 Sum of electronic and thermal Energies=              -736.552802
 Sum of electronic and thermal Enthalpies=            -736.551858
 Sum of electronic and thermal Free Energies=         -736.614043

                     E (Thermal)             CV                S
                      KCal/Mol        Cal/Mol-Kelvin    Cal/Mol-Kelvin
 Total                  213.475             59.387            130.880
 Electronic               0.000              0.000              0.000
 Translational            0.889              2.981             41.389
 Rotational               0.889              2.981             31.654
 Vibrational            211.698             53.425             57.838
 Vibration     1          0.595              1.980              5.159
 Vibration     2          0.596              1.977              4.714
 Vibration     3          0.596              1.974              4.498
 Vibration     4          0.598              1.968              4.145
 Vibration     5          0.599              1.964              3.953
 Vibration     6          0.600              1.962              3.881
 Vibration     7          0.609              1.934              3.123
 Vibration     8          0.614              1.917              2.858
 Vibration     9          0.628              1.871              2.359
 Vibration    10          0.631              1.862              2.292
 Vibration    11          0.652              1.796              1.885
 Vibration    12          0.656              1.782              1.816
 Vibration    13          0.662              1.764              1.738
 Vibration    14          0.665              1.756              1.704
 Vibration    15          0.666              1.754              1.694
 Vibration    16          0.675              1.726              1.587
 Vibration    17          0.679              1.712              1.540
 Vibration    18          0.686              1.692              1.474
 Vibration    19          0.721              1.593              1.205
 Vibration    20          0.744              1.527              1.067
 Vibration    21          0.785              1.421              0.883

 Optimization completed.
    -- Stationary point found.
 Normal termination of Gaussian 09 at Fri Mar 26 17:33:21 2021.
