 Gaussian 09, Revision E.01,
 Gaussian 09:  ES64L-G09RevE.01 30-Nov-2015

 ----------------------------------------------------------------------
 # RMP2=(semidirect,full)/cc-pVTZ int=ultrafine symmetry=none scf=conve
 r=11 Density=current pop=(minimal,CHELPG,Dipole)
 ----------------------------------------------------------------------

 -------------------
 Title Card Required
 -------------------
 Symbolic Z-matrix:
 Charge =  1 Multiplicity = 1

                          Input orientation:
 ---------------------------------------------------------------------
 Center     Atomic      Atomic             Coordinates (Angstroms)
 Number     Number       Type             X           Y           Z
 ---------------------------------------------------------------------
      1         15           0       -0.517529    0.922409    2.196475
      2          6           0       -1.578602   -0.419529    1.574880
      3          6           0       -2.817233    0.051645    0.795652
      4          6           0        0.821579    0.193483    3.190565
      5          6           0        1.747433    1.216780    3.868326
      6          6           0       -1.492953    2.078663    3.205574
      7          6           0       -2.155299    1.431870    4.432364
      8          6           0        0.191976    1.829277    0.797515
      9          1           0       -1.871870   -1.019658    2.441736
     10          1           0       -0.944482   -1.058051    0.950805
     11          1           0       -2.510601    0.671502   -0.052261
     12          1           0       -3.439696    0.680362    1.439136
     13          1           0        1.388376   -0.462169    2.521122
     14          1           0        0.347678   -0.452818    3.935745
     15          1           0        1.163297    1.855562    4.537312
     16          1           0        2.194180    1.871973    3.114472
     17          1           0       -2.243571    2.523873    2.545495
     18          1           0       -0.820244    2.887856    3.505436
     19          1           0       -2.811597    0.617152    4.111503
     20          1           0       -1.389269    0.985655    5.073871
     21          1           0        0.784264    1.152199    0.179514
     22          1           0        0.831830    2.633420    1.162823
     23          1           0       -0.606247    2.260998    0.192522
     24          6           0        2.855944    0.523053    4.663200
     25          1           0        3.478799   -0.097488    4.014087
     26          1           0        3.502528    1.259829    5.142618
     27          1           0        2.439569   -0.116869    5.445358
     28          6           0       -3.640416   -1.134926    0.289379
     29          1           0       -4.518278   -0.787126   -0.257551
     30          1           0       -3.053565   -1.764359   -0.384275
     31          1           0       -3.986851   -1.757431    1.118308
     32          6           0       -2.962969    2.454426    5.234364
     33          1           0       -3.757808    2.894038    4.626464
     34          1           0       -3.427197    1.982329    6.101743
     35          1           0       -2.325578    3.265628    5.595240
 ---------------------------------------------------------------------

 SCF Done:  E(RHF) =  -733.388118147     A.U. after   16 cycles
 E2 =    -0.2124209245D+01 EUMP2 =    -0.73551232739239D+03

 Alpha  occ. eigenvalues --  -80.16725 -11.39541 -11.39539 -11.39521 -11.39469
 Alpha  occ. eigenvalues --  -11.37234 -11.37185 -11.37184 -11.33545 -11.33476
 Alpha  occ. eigenvalues --  -11.33474  -7.70622  -5.60143  -5.60131  -5.60123
 Alpha  occ. eigenvalues --   -1.25824  -1.20682  -1.20297  -1.15853  -1.09783
 Alpha  occ. eigenvalues --   -1.07526  -1.06989  -0.96751  -0.95802  -0.94629
 Alpha  occ. eigenvalues --   -0.88593  -0.79980  -0.79967  -0.78404  -0.75383
 Alpha  occ. eigenvalues --   -0.74772  -0.72731  -0.71655  -0.71065  -0.70950
 Alpha  occ. eigenvalues --   -0.70119  -0.68181  -0.67781  -0.67722  -0.66829
 Alpha  occ. eigenvalues --   -0.63572  -0.62854  -0.62225  -0.61672  -0.61584
 Alpha  occ. eigenvalues --   -0.61279  -0.61097  -0.59834  -0.58828
 Alpha virt. eigenvalues --   -0.00825   0.01285   0.01326   0.02186   0.03461
 Alpha virt. eigenvalues --    0.03492   0.04983   0.05608   0.05864   0.07185
 Alpha virt. eigenvalues --    0.07209   0.08143   0.08621   0.09024   0.09375

 Mulliken charges:
               1
     1  P    0.377056
     2  C   -0.298547
     3  C   -0.272380
     4  C   -0.298499
     5  C   -0.272258
     6  C   -0.317623
     7  C   -0.266523
     8  C   -0.416260
     9  H    0.179380
    10  H    0.185684
    11  H    0.153601
    12  H    0.151901
    13  H    0.185649
    14  H    0.179354
    15  H    0.151874
    16  H    0.153589
    17  H    0.190700
    18  H    0.190881
    19  H    0.153328
    20  H    0.153513
    21  H    0.178865
    22  H    0.182959
    23  H    0.182995
    24  C   -0.365028
    25  H    0.136771
    26  H    0.156991
    27  H    0.135250
    28  C   -0.365023
    29  H    0.157001
    30  H    0.136769
    31  H    0.135265
    32  C   -0.366607
    33  H    0.136098
    34  H    0.157077
    35  H    0.136195
 Sum of Mulliken charges =   1.00000

 Dipole moment (field-independent basis, Debye):
    X=             -3.1447    Y=              4.3510    Z=             11.5553  Tot=             12.7415
 Quadrupole moment (field-independent basis, Debye-Ang):
   XX=            -59.6381   YY=            -67.1595   ZZ=            -36.7320
   XY=             -1.6984   XZ=             -4.9584   YZ=             13.0957

 ESP charges:
               1
     1  P    0.366457
     2  C   -0.177031
     3  C    0.190754
     4  C   -0.191328
     5  C    0.190281
     6  C   -0.070552
     7  C    0.141447
     8  C   -0.385434
     9  H    0.074943
    10  H    0.101602
    11  H   -0.001698
    12  H    0.000943
    13  H    0.105510
    14  H    0.079987
    15  H    0.002478
    16  H   -0.001209
    17  H    0.057196
    18  H    0.058243
    19  H    0.010246
    20  H    0.010197
    21  H    0.170778
    22  H    0.153767
    23  H    0.152279
    24  C   -0.284532
    25  H    0.086041
    26  H    0.095148
    27  H    0.089387
    28  C   -0.285024
    29  H    0.095665
    30  H    0.085318
    31  H    0.089338
    32  C   -0.283453
    33  H    0.088384
    34  H    0.095748
    35  H    0.088125
 Sum of ESP charges =   1.00000

 Normal termination of Gaussian 09 at Fri Mar 26 18:52:36 2021.
