 Gaussian 09, Revision E.01,
 Gaussian 09:  ES64L-G09RevE.01 30-Nov-2015

 ----------------------------------------------------------------------
 # opt=(maxcycles=400,verytight) freq EmpiricalDispersion=GD3BJ rb3lyp/
 6-311+g(d,p) int=ultrafine symmetry=none scf=(conver=10) pop=(minimal,
 CHELPG,Dipole)
 ----------------------------------------------------------------------

 -------------------
 Title Card Required
 -------------------
 Symbolic Z-matrix:
 Charge =  1 Multiplicity = 1

 SCF Done:  E(RB3LYP) =  -854.883229554     A.U. after   24 cycles
 Optimization completed.
    -- Stationary point found.
 Normal termination of Gaussian 09 at Fri Mar 26 18:04:27 2021.

 ----------------------------------------------------------------------
 #N Geom=AllCheck Guess=TCheck SCRF=Check GenChk RB3LYP/6-311+G(d,p) Fr
 eq
 ----------------------------------------------------------------------

 Structure from the checkpoint file:  "P4441.chk"
 -------------------
 Title Card Required
 -------------------
 Charge =  1 Multiplicity = 1

                          Input orientation:
 ---------------------------------------------------------------------
 Center     Atomic      Atomic             Coordinates (Angstroms)
 Number     Number       Type             X           Y           Z
 ---------------------------------------------------------------------
      1         15           0       -0.511848    0.907128    2.195889
      2          6           0       -1.574914   -0.438908    1.588412
      3          6           0       -2.809740    0.029115    0.803874
      4          6           0        0.820771    0.192209    3.207762
      5          6           0        1.736225    1.226741    3.879534
      6          6           0       -1.488838    2.079391    3.183312
      7          6           0       -2.155751    1.448429    4.414192
      8          6           0        0.207357    1.790872    0.786966
      9          1           0       -1.870927   -1.027456    2.462131
     10          1           0       -0.941935   -1.086229    0.972435
     11          1           0       -2.503328    0.639710   -0.051961
     12          1           0       -3.434114    0.665865    1.438999
     13          1           0        1.394286   -0.469641    2.550374
     14          1           0        0.341945   -0.445999    3.956601
     15          1           0        1.146743    1.872490    4.538461
     16          1           0        2.189509    1.876238    3.123345
     17          1           0       -2.235948    2.516055    2.513816
     18          1           0       -0.815597    2.890950    3.474998
     19          1           0       -2.814505    0.630518    4.103690
     20          1           0       -1.394554    1.008545    5.067221
     21          1           0        0.799269    1.102471    0.181259
     22          1           0        0.849204    2.597165    1.143873
     23          1           0       -0.586706    2.217012    0.172668
     24          6           0       -2.969054    2.475641    5.209731
     25          1           0       -3.727312    2.917598    4.554044
     26          1           0       -2.309532    3.294898    5.516383
     27          6           0       -3.645517   -1.154417    0.302683
     28          1           0       -3.945311   -1.769092    1.158612
     29          1           0       -3.020584   -1.791485   -0.332602
     30          6           0        2.846973    0.556093    4.696186
     31          1           0        3.436940   -0.089916    4.036964
     32          1           0        2.393057   -0.099493    5.447501
     33          6           0       -3.639819    1.861661    6.438618
     34          1           0       -2.900075    1.441276    7.125732
     35          1           0       -4.211737    2.612659    6.986549
     36          1           0       -4.328883    1.060862    6.155776
     37          6           0        3.761133    1.573117    5.379746
     38          1           0        4.541934    1.070968    5.953781
     39          1           0        4.251890    2.220428    4.647528
     40          1           0        3.200085    2.210337    6.069167
     41          6           0       -4.884361   -0.704973   -0.472234
     42          1           0       -4.609957   -0.115111   -1.351298
     43          1           0       -5.461136   -1.564952   -0.817325
     44          1           0       -5.541959   -0.092885    0.151478
 ---------------------------------------------------------------------

 SCF Done:  E(RB3LYP) =  -854.883229554     A.U. after    5 cycles

 Alpha  occ. eigenvalues --  -77.26651 -10.33903 -10.33902 -10.33844 -10.33839
 Alpha  occ. eigenvalues --  -10.31239 -10.31192 -10.31191 -10.28515 -10.28446
 Alpha  occ. eigenvalues --  -10.28445 -10.26029 -10.25946 -10.25946  -6.76221
 Alpha  occ. eigenvalues --   -4.92268  -4.92232  -4.92231  -0.98706  -0.93956
 Alpha  occ. eigenvalues --   -0.93663  -0.90930  -0.86737  -0.86110  -0.85988
 Alpha  occ. eigenvalues --   -0.79564  -0.77705  -0.76474  -0.71056  -0.70968
 Alpha  occ. eigenvalues --   -0.70944  -0.69525  -0.63264  -0.63127  -0.61981
 Alpha  occ. eigenvalues --   -0.59545  -0.59202  -0.57805  -0.56843  -0.56148
 Alpha  occ. eigenvalues --   -0.55212  -0.55044  -0.54803  -0.54498  -0.53740
 Alpha  occ. eigenvalues --   -0.53117  -0.51553  -0.50737  -0.49459  -0.49403
 Alpha  occ. eigenvalues --   -0.49184  -0.49034  -0.47108  -0.46357  -0.46040
 Alpha  occ. eigenvalues --   -0.45568  -0.45018  -0.44889  -0.44826  -0.44781
 Alpha  occ. eigenvalues --   -0.44323
 Alpha virt. eigenvalues --   -0.13042  -0.11537  -0.11184  -0.10504  -0.10181
 Alpha virt. eigenvalues --   -0.09982  -0.08732  -0.08246  -0.08045  -0.07245
 Alpha virt. eigenvalues --   -0.07201  -0.06995  -0.06066  -0.05814  -0.05589

 Mulliken charges:
               1
     1  P    1.160705
     2  C   -0.313687
     3  C   -0.370121
     4  C   -0.312954
     5  C   -0.370216
     6  C   -0.013069
     7  C   -0.625882
     8  C   -0.860279
     9  H    0.237735
    10  H    0.221900
    11  H    0.162164
    12  H    0.166017
    13  H    0.221930
    14  H    0.237735
    15  H    0.165855
    16  H    0.162332
    17  H    0.229581
    18  H    0.229603
    19  H    0.169887
    20  H    0.170146
    21  H    0.232560
    22  H    0.233955
    23  H    0.233866
    24  C   -0.331087
    25  H    0.152227
    26  H    0.152367
    27  C   -0.325864
    28  H    0.150685
    29  H    0.153372
    30  C   -0.325728
    31  H    0.153399
    32  H    0.150667
    33  C   -0.545007
    34  H    0.141177
    35  H    0.164605
    36  H    0.141118
    37  C   -0.548372
    38  H    0.164508
    39  H    0.142384
    40  H    0.140624
    41  C   -0.548353
    42  H    0.142371
    43  H    0.164507
    44  H    0.140636
 Sum of Mulliken charges =   1.00000

 Dipole moment (field-independent basis, Debye):
    X=             -3.3228    Y=              4.2761    Z=             11.8538  Tot=             13.0323
 Quadrupole moment (field-independent basis, Debye-Ang):
   XX=            -74.6791   YY=            -87.0517   ZZ=            -51.9536
   XY=             -1.2188   XZ=             -4.3210   YZ=             14.5836

  Exact polarizability: 192.699   5.982 153.724  13.070  10.376 179.739
 Approx polarizability: 240.170   1.023 233.992   2.457   1.639 237.828

 ESP charges:
               1
     1  P    0.656947
     2  C   -0.309784
     3  C    0.080233
     4  C   -0.304562
     5  C    0.083295
     6  C   -0.229491
     7  C    0.073287
     8  C   -0.402439
     9  H    0.096705
    10  H    0.113233
    11  H    0.005186
    12  H    0.018648
    13  H    0.111400
    14  H    0.095255
    15  H    0.019474
    16  H    0.003451
    17  H    0.075703
    18  H    0.074853
    19  H    0.012851
    20  H    0.013118
    21  H    0.159301
    22  H    0.147166
    23  H    0.146567
    24  C    0.106108
    25  H    0.006511
    26  H    0.005696
    27  C    0.124301
    28  H    0.002365
    29  H   -0.000986
    30  C    0.112939
    31  H    0.000476
    32  H    0.003596
    33  C   -0.255289
    34  H    0.064540
    35  H    0.091817
    36  H    0.064756
    37  C   -0.234458
    38  H    0.086185
    39  H    0.061243
    40  H    0.056364
    41  C   -0.255629
    42  H    0.065982
    43  H    0.091026
    44  H    0.062058
 Sum of ESP charges =   1.00000

                      1                      2                      3
                      A                      A                      A
 Frequencies --     24.3015                30.3782                46.8666
 Red. masses --      3.3976                 3.3298                 1.5137
 Frc consts  --      0.0012                 0.0018                 0.0020
 IR Inten    --      0.2299                 0.7891                 0.0184

                      4                      5                      6
                      A                      A                      A
 Frequencies --     50.3346                58.6651                66.6108
 Red. masses --      3.5738                 1.5896                 1.5052
 Frc consts  --      0.0053                 0.0032                 0.0039
 IR Inten    --      1.1189                 0.1037                 0.0003

                      7                      8                      9
                      A                      A                      A
 Frequencies --     85.3773                99.0811               114.7871
 Red. masses --      2.7206                 3.0353                 2.6428
 Frc consts  --      0.0117                 0.0176                 0.0205
 IR Inten    --      0.0019                 0.1214                 0.0007

                     10                     11                     12
                      A                      A                      A
 Frequencies --    127.7540               129.5817               149.0643
 Red. masses --      2.2341                 2.2171                 1.9227
 Frc consts  --      0.0215                 0.0219                 0.0252
 IR Inten    --      0.0455                 0.1972                 0.1328

                     13                     14                     15
                      A                      A                      A
 Frequencies --    180.1848               195.4161               219.2527
 Red. masses --      1.1506                 3.2332                 3.1316
 Frc consts  --      0.0220                 0.0727                 0.0887
 IR Inten    --      0.0037                 0.1908                 0.4602

                     16                     17                     18
                      A                      A                      A
 Frequencies --    229.8839               232.0229               234.1356
 Red. masses --      1.5724                 1.6093                 1.4944
 Frc consts  --      0.0490                 0.0510                 0.0483
 IR Inten    --      0.0277                 0.1078                 0.0058

                     19                     20                     21
                      A                      A                      A
 Frequencies --    248.5764               249.0688               253.4028
 Red. masses --      1.3733                 1.5493                 1.5601
 Frc consts  --      0.0500                 0.0566                 0.0590
 IR Inten    --      0.0184                 0.0309                 0.0002

                     22                     23                     24
                      A                      A                      A
 Frequencies --    274.0145               344.6032               388.4521
 Red. masses --      3.1986                 3.4083                 3.2862
 Frc consts  --      0.1415                 0.2385                 0.2922
 IR Inten    --      1.9065                 4.2911                 2.8255

                     25                     26                     27
                      A                      A                      A
 Frequencies --    405.9111               416.5471               439.1470
 Red. masses --      3.1911                 2.7861                 2.9377
 Frc consts  --      0.3098                 0.2848                 0.3338
 IR Inten    --      6.1981                 0.2394                 2.2600

                     28                     29                     30
                      A                      A                      A
 Frequencies --    667.3941               704.9628               724.7572
 Red. masses --      3.4505                 1.1639                 1.3113
 Frc consts  --      0.9055                 0.3408                 0.4058
 IR Inten    --      0.1204                 2.6645                 7.5573

                     31                     32                     33
                      A                      A                      A
 Frequencies --    728.7789               755.7638               756.4898
 Red. masses --      1.1313                 1.7604                 1.9097
 Frc consts  --      0.3540                 0.5924                 0.6439
 IR Inten    --      4.6156                 8.6541                 4.0428

                     34                     35                     36
                      A                      A                      A
 Frequencies --    761.5613               786.7820               786.9808
 Red. masses --      1.3690                 1.6089                 1.2942
 Frc consts  --      0.4678                 0.5868                 0.4723
 IR Inten    --      0.2637                 3.7881                 3.0462

                     37                     38                     39
                      A                      A                      A
 Frequencies --    815.9660               878.0451               889.2881
 Red. masses --      2.9116                 1.2443                 1.6775
 Frc consts  --      1.1421                 0.5652                 0.7816
 IR Inten    --     10.3031                 4.4733                 2.7117

                     40                     41                     42
                      A                      A                      A
 Frequencies --    898.5413               911.5078               923.8174
 Red. masses --      1.7758                 1.7983                 1.5683
 Frc consts  --      0.8447                 0.8803                 0.7886
 IR Inten    --      0.3729                 0.6602                13.1007

                     43                     44                     45
                      A                      A                      A
 Frequencies --    927.9762               944.0350               954.8143
 Red. masses --      1.3075                 1.3792                 1.4716
 Frc consts  --      0.6634                 0.7242                 0.7904
 IR Inten    --      7.6879                28.5308                44.6998

                     46                     47                     48
                      A                      A                      A
 Frequencies --   1005.0251              1013.5312              1017.7052
 Red. masses --      3.5982                 3.5920                 3.6498
 Frc consts  --      2.1414                 2.1740                 2.2272
 IR Inten    --     16.8401                 1.2539                 0.0505

                     49                     50                     51
                      A                      A                      A
 Frequencies --   1055.8103              1057.1448              1058.0946
 Red. masses --      2.7057                 2.6586                 2.6547
 Frc consts  --      1.7771                 1.7505                 1.7511
 IR Inten    --      1.1514                 2.2517                 0.2993

                     52                     53                     54
                      A                      A                      A
 Frequencies --   1065.9698              1089.1176              1096.4270
 Red. masses --      1.1607                 1.2298                 1.3010
 Frc consts  --      0.7771                 0.8595                 0.9215
 IR Inten    --      3.6643                 0.0693                 9.9563

                     55                     56                     57
                      A                      A                      A
 Frequencies --   1110.3939              1117.4538              1121.8488
 Red. masses --      1.8911                 2.0365                 2.1901
 Frc consts  --      1.3738                 1.4983                 1.6240
 IR Inten    --     54.4561                18.2671                 0.3567

                     58                     59                     60
                      A                      A                      A
 Frequencies --   1227.3908              1230.3835              1232.5836
 Red. masses --      1.4975                 1.4567                 1.4490
 Frc consts  --      1.3291                 1.2993                 1.2970
 IR Inten    --      0.0825                 0.5540                 1.9423

                     61                     62                     63
                      A                      A                      A
 Frequencies --   1249.1211              1252.3350              1266.3682
 Red. masses --      1.3277                 1.3524                 1.3069
 Frc consts  --      1.2206                 1.2497                 1.2348
 IR Inten    --      4.3136                 8.9719                 2.0615

                     64                     65                     66
                      A                      A                      A
 Frequencies --   1309.0435              1312.6656              1315.9341
 Red. masses --      1.1836                 1.1787                 1.1779
 Frc consts  --      1.1950                 1.1966                 1.2018
 IR Inten    --      0.3557                 2.3363                 3.0832

                     67                     68                     69
                      A                      A                      A
 Frequencies --   1340.9303              1341.8796              1342.2811
 Red. masses --      1.1686                 1.1276                 1.2322
 Frc consts  --      1.2381                 1.1963                 1.3080
 IR Inten    --      3.4177                 2.9539                 3.5196

                     70                     71                     72
                      A                      A                      A
 Frequencies --   1344.7631              1345.7165              1347.9049
 Red. masses --      1.2831                 1.0666                 1.2672
 Frc consts  --      1.3672                 1.1380                 1.3565
 IR Inten    --      5.8525                 0.3710                 1.5384

                     73                     74                     75
                      A                      A                      A
 Frequencies --   1356.0769              1392.2218              1393.1704
 Red. masses --      1.2204                 1.4507                 1.4541
 Frc consts  --      1.3223                 1.6567                 1.6629
 IR Inten    --     14.5303                 0.7451                 3.0826

                     76                     77                     78
                      A                      A                      A
 Frequencies --   1396.6048              1422.5861              1422.6961
 Red. masses --      1.4564                 1.2255                 1.2255
 Frc consts  --      1.6737                 1.4613                 1.4615
 IR Inten    --      2.0036                 5.2576                 2.6052

                     79                     80                     81
                      A                      A                      A
 Frequencies --   1422.9247              1448.5192              1456.2168
 Red. masses --      1.2257                 1.0699                 1.0710
 Frc consts  --      1.4622                 1.3226                 1.3381
 IR Inten    --      2.4536                 0.8246                 5.5038

                     82                     83                     84
                      A                      A                      A
 Frequencies --   1459.1686              1462.7057              1467.5183
 Red. masses --      1.0779                 1.0518                 1.0566
 Frc consts  --      1.3522                 1.3259                 1.3407
 IR Inten    --      0.6352                 4.5223                33.6531

                     85                     86                     87
                      A                      A                      A
 Frequencies --   1487.5800              1490.0849              1491.7181
 Red. masses --      1.0689                 1.0609                 1.0548
 Frc consts  --      1.3937                 1.3879                 1.3829
 IR Inten    --      0.8561                 7.9173                 1.0464

                     88                     89                     90
                      A                      A                      A
 Frequencies --   1495.2721              1496.4666              1498.9583
 Red. masses --      1.0565                 1.0634                 1.0702
 Frc consts  --      1.3918                 1.4031                 1.4167
 IR Inten    --      1.0534                 0.4223                 0.1198

                     91                     92                     93
                      A                      A                      A
 Frequencies --   1501.9313              1502.0533              1502.1630
 Red. masses --      1.0386                 1.0385                 1.0386
 Frc consts  --      1.3803                 1.3805                 1.3807
 IR Inten    --     10.9087                10.7506                12.3542

                     94                     95                     96
                      A                      A                      A
 Frequencies --   1510.2740              1511.1586              1513.0749
 Red. masses --      1.0898                 1.0906                 1.0918
 Frc consts  --      1.4646                 1.4674                 1.4726
 IR Inten    --     29.7766                 0.8886                 0.8063

                     97                     98                     99
                      A                      A                      A
 Frequencies --   3015.9417              3016.2066              3016.7182
 Red. masses --      1.0581                 1.0580                 1.0583
 Frc consts  --      5.6705                 5.6710                 5.6746
 IR Inten    --      2.3678                 1.1704                 3.2704

                    100                    101                    102
                      A                      A                      A
 Frequencies --   3024.0649              3024.6005              3025.4518
 Red. masses --      1.0562                 1.0559                 1.0549
 Frc consts  --      5.6907                 5.6914                 5.6890
 IR Inten    --     37.3071                 4.0765                 6.8908

                    103                    104                    105
                      A                      A                      A
 Frequencies --   3030.7878              3030.8021              3031.1027
 Red. masses --      1.0398                 1.0399                 1.0408
 Frc consts  --      5.6273                 5.6279                 5.6341
 IR Inten    --     35.6299                25.8151                26.6666

                    106                    107                    108
                      A                      A                      A
 Frequencies --   3038.0215              3040.8018              3041.0146
 Red. masses --      1.0644                 1.0996                 1.0890
 Frc consts  --      5.7880                 5.9907                 5.9338
 IR Inten    --      8.0829                 0.8351                 6.5772

                    109                    110                    111
                      A                      A                      A
 Frequencies --   3041.4685              3041.7152              3046.4729
 Red. masses --      1.0670                 1.0983                 1.0625
 Frc consts  --      5.8155                 5.9871                 5.8100
 IR Inten    --      5.1716                 0.8416                16.2616

                    112                    113                    114
                      A                      A                      A
 Frequencies --   3053.4581              3062.2396              3064.3367
 Red. masses --      1.0341                 1.1054                 1.1045
 Frc consts  --      5.6805                 6.1072                 6.1109
 IR Inten    --      1.6932                 6.0115                11.0171

                    115                    116                    117
                      A                      A                      A
 Frequencies --   3064.5568              3084.4412              3087.7279
 Red. masses --      1.1042                 1.1035                 1.1031
 Frc consts  --      6.1097                 6.1857                 6.1967
 IR Inten    --     17.7343                 0.7735                 0.0636

                    118                    119                    120
                      A                      A                      A
 Frequencies --   3089.6983              3092.6342              3093.4524
 Red. masses --      1.1039                 1.1031                 1.1031
 Frc consts  --      6.2086                 6.2164                 6.2196
 IR Inten    --      1.4179                26.4197                99.6473

                    121                    122                    123
                      A                      A                      A
 Frequencies --   3094.0950              3107.6582              3107.7113
 Red. masses --      1.1034                 1.1005                 1.1005
 Frc consts  --      6.2239                 6.2619                 6.2623
 IR Inten    --     23.1409                18.4016                13.4941

                    124                    125                    126
                      A                      A                      A
 Frequencies --   3107.7420              3137.6679              3141.9846
 Red. masses --      1.1005                 1.1035                 1.1031
 Frc consts  --      6.2624                 6.4009                 6.4163
 IR Inten    --     24.3299                 0.0815                 0.0119

 - Thermochemistry -
 -------------------
 Temperature   298.150 Kelvin.  Pressure   1.00000 Atm.
 Atom     1 has atomic number 15 and mass  30.97376

 Molecular mass:   217.20851 amu.
 Principal axes and moments of inertia in atomic units:
                           1         2         3
     Eigenvalues --  3090.921816272.747848399.07030
           X            0.80942  -0.58703   0.01556
           Y            0.21302   0.31820   0.92378
           Z            0.54724   0.74441  -0.38260
 This molecule is an asymmetric top.
 Rotational symmetry number  1.
 Warning -- assumption of classical behavior for rotation
           may cause significant error
 Rotational temperatures (Kelvin)      0.02802     0.01381     0.01031
 Rotational constants (GHZ):           0.58388     0.28771     0.21487
 Zero-point vibrational energy    1072658.1 (Joules/Mol)
                                  256.37143 (Kcal/Mol)
 Warning -- explicit consideration of  27 degrees of freedom as
           vibrations may cause significant error
 Vibrational temperatures:     34.96    43.71    67.43    72.42    84.41
          (Kelvin)             95.84   122.84   142.56   165.15   183.81
                              186.44   214.47   259.25   281.16   315.46
                              330.75   333.83   336.87   357.65   358.35
                              364.59   394.25   495.81   558.90   584.01
                              599.32   631.83   960.23  1014.28  1042.76
                             1048.55  1087.37  1088.42  1095.72  1132.00
                             1132.29  1173.99  1263.31  1279.49  1292.80
                             1311.45  1329.17  1335.15  1358.25  1373.76
                             1446.01  1458.24  1464.25  1519.07  1520.99
                             1522.36  1533.69  1567.00  1577.51  1597.61
                             1607.76  1614.09  1765.94  1770.25  1773.41
                             1797.20  1801.83  1822.02  1883.42  1888.63
                             1893.33  1929.30  1930.66  1931.24  1934.81
                             1936.18  1939.33  1951.09  2003.09  2004.46
                             2009.40  2046.78  2046.94  2047.27  2084.09
                             2095.17  2099.42  2104.50  2111.43  2140.29
                             2143.90  2146.25  2151.36  2153.08  2156.66
                             2160.94  2161.12  2161.27  2172.94  2174.22
                             2176.97  4339.26  4339.64  4340.38  4350.95
                             4351.72  4352.94  4360.62  4360.64  4361.08
                             4371.03  4375.03  4375.34  4375.99  4376.34
                             4383.19  4393.24  4405.87  4408.89  4409.21
                             4437.82  4442.55  4445.38  4449.61  4450.78
                             4451.71  4471.22  4471.30  4471.34  4514.40
                             4520.61

 Zero-point correction=                           0.408554 (Hartree/Particle)
 Thermal correction to Energy=                    0.429378
 Thermal correction to Enthalpy=                  0.430322
 Thermal correction to Gibbs Free Energy=         0.357151
 Sum of electronic and zero-point Energies=           -854.474676
 Sum of electronic and thermal Energies=              -854.453852
 Sum of electronic and thermal Enthalpies=            -854.452907
 Sum of electronic and thermal Free Energies=         -854.526079

                     E (Thermal)             CV                S
                      KCal/Mol        Cal/Mol-Kelvin    Cal/Mol-Kelvin
 Total                  269.439             74.011            154.002
 Electronic               0.000              0.000              0.000
 Translational            0.889              2.981             42.030
 Rotational               0.889              2.981             33.454
 Vibrational            267.661             68.050             78.518
 Vibration     1          0.593              1.985              6.247
 Vibration     2          0.594              1.984              5.805
 Vibration     3          0.595              1.979              4.945
 Vibration     4          0.595              1.977              4.804
 Vibration     5          0.596              1.974              4.502
 Vibration     6          0.598              1.970              4.251
 Vibration     7          0.601              1.959              3.763
 Vibration     8          0.604              1.950              3.472
 Vibration     9          0.608              1.937              3.186
 Vibration    10          0.611              1.925              2.980
 Vibration    11          0.612              1.924              2.952
 Vibration    12          0.618              1.904              2.684
 Vibration    13          0.629              1.867              2.327
 Vibration    14          0.636              1.846              2.176
 Vibration    15          0.647              1.812              1.965
 Vibration    16          0.652              1.795              1.880
 Vibration    17          0.653              1.792              1.863
 Vibration    18          0.654              1.789              1.847
 Vibration    19          0.662              1.765              1.741
 Vibration    20          0.662              1.764              1.737
 Vibration    21          0.665              1.757              1.707
 Vibration    22          0.676              1.721              1.571
 Vibration    23          0.723              1.586              1.191
 Vibration    24          0.757              1.495              1.006
 Vibration    25          0.771              1.457              0.941
 Vibration    26          0.780              1.434              0.904
 Vibration    27          0.799              1.385              0.829

 Optimization completed on the basis of negligible forces.
    -- Stationary point found.
 Normal termination of Gaussian 09 at Fri Mar 26 18:21:28 2021.
