 Gaussian 09, Revision E.01,
 Gaussian 09:  ES64L-G09RevE.01 30-Nov-2015

 ----------------------------------------------------------------------
 # RMP2=(semidirect,full)/cc-pVTZ int=ultrafine symmetry=none scf=conve
 r=11 Density=current pop=(minimal,CHELPG,Dipole)
 ----------------------------------------------------------------------

 -------------------
 Title Card Required
 -------------------
 Symbolic Z-matrix:
 Charge =  1 Multiplicity = 1

                          Input orientation:
 ---------------------------------------------------------------------
 Center     Atomic      Atomic             Coordinates (Angstroms)
 Number     Number       Type             X           Y           Z
 ---------------------------------------------------------------------
      1         15           0       -0.511848    0.907128    2.195889
      2          6           0       -1.574914   -0.438908    1.588412
      3          6           0       -2.809740    0.029115    0.803874
      4          6           0        0.820771    0.192209    3.207762
      5          6           0        1.736225    1.226741    3.879534
      6          6           0       -1.488838    2.079391    3.183312
      7          6           0       -2.155751    1.448429    4.414192
      8          6           0        0.207357    1.790872    0.786966
      9          1           0       -1.870927   -1.027456    2.462131
     10          1           0       -0.941935   -1.086229    0.972435
     11          1           0       -2.503328    0.639710   -0.051961
     12          1           0       -3.434114    0.665865    1.438999
     13          1           0        1.394286   -0.469641    2.550374
     14          1           0        0.341945   -0.445999    3.956601
     15          1           0        1.146743    1.872490    4.538461
     16          1           0        2.189509    1.876238    3.123345
     17          1           0       -2.235948    2.516055    2.513816
     18          1           0       -0.815597    2.890950    3.474998
     19          1           0       -2.814505    0.630518    4.103690
     20          1           0       -1.394554    1.008545    5.067221
     21          1           0        0.799269    1.102471    0.181259
     22          1           0        0.849204    2.597165    1.143873
     23          1           0       -0.586706    2.217012    0.172668
     24          6           0       -2.969054    2.475641    5.209731
     25          1           0       -3.727312    2.917598    4.554044
     26          1           0       -2.309532    3.294898    5.516383
     27          6           0       -3.645517   -1.154417    0.302683
     28          1           0       -3.945311   -1.769092    1.158612
     29          1           0       -3.020584   -1.791485   -0.332602
     30          6           0        2.846973    0.556093    4.696186
     31          1           0        3.436940   -0.089916    4.036964
     32          1           0        2.393057   -0.099493    5.447501
     33          6           0       -3.639819    1.861661    6.438618
     34          1           0       -2.900075    1.441276    7.125732
     35          1           0       -4.211737    2.612659    6.986549
     36          1           0       -4.328883    1.060862    6.155776
     37          6           0        3.761133    1.573117    5.379746
     38          1           0        4.541934    1.070968    5.953781
     39          1           0        4.251890    2.220428    4.647528
     40          1           0        3.200085    2.210337    6.069167
     41          6           0       -4.884361   -0.704973   -0.472234
     42          1           0       -4.609957   -0.115111   -1.351298
     43          1           0       -5.461136   -1.564952   -0.817325
     44          1           0       -5.541959   -0.092885    0.151478
 ---------------------------------------------------------------------

 SCF Done:  E(RHF) =  -850.533317710     A.U. after   16 cycles
 E2 =    -0.2696496387D+01 EUMP2 =    -0.85322981409750D+03

 Alpha  occ. eigenvalues --  -80.16358 -11.39210 -11.39166 -11.39164 -11.39077
 Alpha  occ. eigenvalues --  -11.36567 -11.36527 -11.36527 -11.33735 -11.33667
 Alpha  occ. eigenvalues --  -11.33666 -11.31306 -11.31225 -11.31225  -7.70256
 Alpha  occ. eigenvalues --   -5.59777  -5.59764  -5.59757  -1.25597  -1.21072
 Alpha  occ. eigenvalues --   -1.20751  -1.16953  -1.11587  -1.11354  -1.11321
 Alpha  occ. eigenvalues --   -1.02742  -1.00425  -0.99118  -0.92220  -0.92044
 Alpha  occ. eigenvalues --   -0.91950  -0.87923  -0.79805  -0.79743  -0.78252
 Alpha  occ. eigenvalues --   -0.74981  -0.74912  -0.73133  -0.71798  -0.71365
 Alpha  occ. eigenvalues --   -0.70270  -0.70192  -0.69950  -0.69011  -0.67936
 Alpha  occ. eigenvalues --   -0.67229  -0.65822  -0.64985  -0.63727  -0.63499
 Alpha  occ. eigenvalues --   -0.63167  -0.62570  -0.60424  -0.59685  -0.59446
 Alpha  occ. eigenvalues --   -0.58840  -0.58651  -0.58600  -0.58539  -0.57626
 Alpha  occ. eigenvalues --   -0.56608
 Alpha virt. eigenvalues --   -0.00454   0.01548   0.01572   0.02557   0.03440
 Alpha virt. eigenvalues --    0.03686   0.05066   0.05240   0.05833   0.06717
 Alpha virt. eigenvalues --    0.06791   0.08461   0.08505   0.08773   0.09518

 Mulliken charges:
               1
     1  P    0.368178
     2  C   -0.298383
     3  C   -0.275171
     4  C   -0.298321
     5  C   -0.275130
     6  C   -0.318129
     7  C   -0.269901
     8  C   -0.417872
     9  H    0.179947
    10  H    0.186044
    11  H    0.150452
    12  H    0.148226
    13  H    0.186028
    14  H    0.179910
    15  H    0.148195
    16  H    0.150480
    17  H    0.191546
    18  H    0.191653
    19  H    0.150500
    20  H    0.150647
    21  H    0.178419
    22  H    0.182948
    23  H    0.182932
    24  C   -0.236509
    25  H    0.138740
    26  H    0.138818
    27  C   -0.235131
    28  H    0.137703
    29  H    0.139457
    30  C   -0.235145
    31  H    0.139476
    32  H    0.137689
    33  C   -0.373821
    34  H    0.127068
    35  H    0.153425
    36  H    0.127016
    37  C   -0.373218
    38  H    0.153223
    39  H    0.127585
    40  H    0.126412
    41  C   -0.373215
    42  H    0.127576
    43  H    0.153224
    44  H    0.126427
 Sum of Mulliken charges =   1.00000

 Dipole moment (field-independent basis, Debye):
    X=             -3.3303    Y=              4.2912    Z=             11.8588  Tot=             13.0437
 Quadrupole moment (field-independent basis, Debye-Ang):
   XX=            -74.4944   YY=            -87.1920   ZZ=            -51.7898
   XY=             -1.1796   XZ=             -4.3112   YZ=             14.6891

 ESP charges:
               1
     1  P    0.627280
     2  C   -0.310971
     3  C    0.064650
     4  C   -0.306120
     5  C    0.069037
     6  C   -0.224641
     7  C    0.050570
     8  C   -0.401900
     9  H    0.098523
    10  H    0.117251
    11  H    0.011657
    12  H    0.026239
    13  H    0.115458
    14  H    0.097090
    15  H    0.026817
    16  H    0.009623
    17  H    0.076798
    18  H    0.075906
    19  H    0.022208
    20  H    0.022316
    21  H    0.163750
    22  H    0.149553
    23  H    0.148933
    24  C    0.106303
    25  H    0.009710
    26  H    0.008964
    27  C    0.121689
    28  H    0.005658
    29  H    0.002948
    30  C    0.109659
    31  H    0.004580
    32  H    0.007153
    33  C   -0.270598
    34  H    0.069211
    35  H    0.095552
    36  H    0.069401
    37  C   -0.252897
    38  H    0.091522
    39  H    0.067369
    40  H    0.061769
    41  C   -0.272375
    42  H    0.071603
    43  H    0.095752
    44  H    0.067001
 Sum of ESP charges =   1.00000

 Normal termination of Gaussian 09 at Fri Mar 26 19:55:02 2021.
