 Gaussian 09, Revision E.01,
 Gaussian 09:  ES64L-G09RevE.01 30-Nov-2015

 ----------------------------------------------------------------------
 # freq rb3lyp/6-311+g(d,p) empiricaldispersion=gd3bj int=ultrafine scf
 =conver=10 symmetry=none pop=(minimal,CHELPG,Dipole) guess=read
 ----------------------------------------------------------------------

 -------------------
 Title Card Required
 -------------------
 Symbolic Z-matrix:
 Charge =  1 Multiplicity = 1

                          Input orientation:
 ---------------------------------------------------------------------
 Center     Atomic      Atomic             Coordinates (Angstroms)
 Number     Number       Type             X           Y           Z
 ---------------------------------------------------------------------
      1         15           0       -0.511436    0.906292    2.193362
      2          6           0       -1.584046   -0.431401    1.584199
      3          6           0       -2.819871    0.047517    0.807770
      4          6           0       -4.908621   -0.678324   -0.464099
      5          6           0        0.819080    0.182074    3.201396
      6          6           0        1.737812    1.211029    3.877349
      7          6           0        3.769186    1.538551    5.384652
      8          6           0       -1.479818    2.081725    3.185308
      9          6           0       -2.148114    1.450503    4.415374
     10          6           0       -3.632757    1.874245    6.445987
     11          6           0       -4.437966    2.903455    7.240503
     12          6           0        4.873891    0.860551    6.196327
     13          6           0       -5.748202   -1.854102   -0.965708
     14          6           0        0.210479    1.788966    0.785005
     15          1           0       -1.879394   -1.022521    2.456356
     16          1           0       -0.957379   -1.079097    0.962226
     17          1           0       -2.513440    0.661810   -0.045325
     18          1           0       -3.437424    0.683770    1.449867
     19          1           0       -4.603635   -0.055376   -1.312880
     20          1           0       -5.520086   -0.039105    0.183338
     21          1           0        1.390200   -0.478866    2.541053
     22          1           0        0.338333   -0.457593    3.947704
     23          1           0        1.149731    1.855275    4.538831
     24          1           0        2.192035    1.862421    3.123455
     25          1           0        3.172454    2.182415    6.041188
     26          1           0        4.217217    2.197080    4.631572
     27          1           0       -2.225654    2.524393    2.518393
     28          1           0       -0.801558    2.888560    3.478337
     29          1           0       -2.810594    0.636498    4.102826
     30          1           0       -1.387662    1.005301    5.065520
     31          1           0       -4.290629    1.056115    6.130533
     32          1           0       -2.870355    1.424500    7.092591
     33          1           0       -3.798475    3.716197    7.596437
     34          1           0       -5.228723    3.345177    6.627485
     35          1           0       -4.909999    2.446093    8.112378
     36          1           0        4.454132    0.221185    6.978142
     37          1           0        5.516241    1.598962    6.680369
     38          1           0        5.506410    0.236502    5.558668
     39          1           0       -5.171270   -2.491551   -1.641688
     40          1           0       -6.094131   -2.475622   -0.134875
     41          1           0       -6.628867   -1.505453   -1.508873
     42          1           0        0.797608    1.098547    0.176969
     43          1           0        0.857290    2.590967    1.142603
     44          1           0       -0.582315    2.220626    0.172925
     45          6           0       -2.954975    2.479050    5.213746
     46          1           0       -3.714073    2.927873    4.562158
     47          1           0       -2.292909    3.295979    5.524421
     48          6           0       -3.663005   -1.128294    0.303843
     49          1           0       -3.963720   -1.749101    1.156211
     50          1           0       -3.046677   -1.766082   -0.340666
     51          6           0        2.846002    0.533864    4.690176
     52          1           0        3.437783   -0.110684    4.029604
     53          1           0        2.392916   -0.125209    5.440311
 ---------------------------------------------------------------------

 SCF Done:  E(RB3LYP) =  -972.871767103     A.U. after    2 cycles

 Alpha  occ. eigenvalues --  -77.26416 -10.33684 -10.33683 -10.33648 -10.33618
 Alpha  occ. eigenvalues --  -10.31000 -10.30960 -10.30958 -10.28000 -10.27935
 Alpha  occ. eigenvalues --  -10.27934 -10.26408 -10.26329 -10.26328 -10.24304
 Alpha  occ. eigenvalues --  -10.24224 -10.24223  -6.75985  -4.92034  -4.91997
 Alpha  occ. eigenvalues --   -4.91996  -0.98486  -0.93840  -0.93563  -0.91091
 Alpha  occ. eigenvalues --   -0.87482  -0.87470  -0.87312  -0.82371  -0.80592
 Alpha  occ. eigenvalues --   -0.79903  -0.74269  -0.73691  -0.72798  -0.70065
 Alpha  occ. eigenvalues --   -0.68826  -0.68746  -0.67901  -0.63075  -0.62951
 Alpha  occ. eigenvalues --   -0.61831  -0.59236  -0.59183  -0.57729  -0.56433
 Alpha  occ. eigenvalues --   -0.56101  -0.55441  -0.54953  -0.54950  -0.54610
 Alpha  occ. eigenvalues --   -0.53675  -0.53570  -0.51771  -0.51200  -0.50630
 Alpha  occ. eigenvalues --   -0.50419  -0.49920  -0.49913  -0.48516  -0.48141
 Alpha  occ. eigenvalues --   -0.47595  -0.46417  -0.46408  -0.46268  -0.44340
 Alpha  occ. eigenvalues --   -0.44044  -0.43862  -0.43389  -0.43084  -0.42843
 Alpha  occ. eigenvalues --   -0.42761  -0.42760  -0.42512
 Alpha virt. eigenvalues --   -0.12873  -0.11390  -0.10995  -0.10277  -0.10016
 Alpha virt. eigenvalues --   -0.09836  -0.08522  -0.08093  -0.08026  -0.07195
 Alpha virt. eigenvalues --   -0.06919  -0.06795  -0.05838  -0.05699  -0.05528

 Mulliken charges:
               1
     1  P    1.406201
     2  C   -0.313509
     3  C   -0.217458
     4  C   -0.193812
     5  C   -0.312265
     6  C   -0.217618
     7  C   -0.193411
     8  C    0.118832
     9  C   -0.599316
    10  C   -0.181753
    11  C   -0.604520
    12  C   -0.602739
    13  C   -0.602501
    14  C   -0.926387
    15  H    0.240003
    16  H    0.221509
    17  H    0.161669
    18  H    0.167238
    19  H    0.142772
    20  H    0.140915
    21  H    0.221574
    22  H    0.239976
    23  H    0.166961
    24  H    0.161912
    25  H    0.140851
    26  H    0.142800
    27  H    0.229201
    28  H    0.229207
    29  H    0.169582
    30  H    0.169962
    31  H    0.141609
    32  H    0.141717
    33  H    0.140615
    34  H    0.140570
    35  H    0.155852
    36  H    0.140153
    37  H    0.155988
    38  H    0.140928
    39  H    0.140901
    40  H    0.140167
    41  H    0.156004
    42  H    0.233024
    43  H    0.237295
    44  H    0.237147
    45  C   -0.574220
    46  H    0.155089
    47  H    0.155312
    48  C   -0.581625
    49  H    0.153236
    50  H    0.156396
    51  C   -0.581701
    52  H    0.156455
    53  H    0.153215
 Sum of Mulliken charges =   1.00000

 Dipole moment (field-independent basis, Debye):
    X=             -3.4786    Y=              4.2897    Z=             12.0716  Tot=             13.2750
 Quadrupole moment (field-independent basis, Debye-Ang):
   XX=            -89.9161   YY=           -107.3689   ZZ=            -67.4807
   XY=             -0.6191   XZ=             -3.6601   YZ=             15.7360

  Exact polarizability: 236.099   5.770 186.912  17.358  15.029 217.735
 Approx polarizability: 288.515   0.819 282.524   2.789   1.833 285.756

 ESP charges:
               1
     1  P    0.536626
     2  C   -0.192563
     3  C    0.026145
     4  C    0.122385
     5  C   -0.175326
     6  C    0.048875
     7  C    0.129174
     8  C   -0.065249
     9  C   -0.015893
    10  C    0.128500
    11  C   -0.177877
    12  C   -0.174679
    13  C   -0.153840
    14  C   -0.394800
    15  H    0.071662
    16  H    0.091633
    17  H    0.013173
    18  H    0.026221
    19  H   -0.015795
    20  H   -0.020158
    21  H    0.086194
    22  H    0.063970
    23  H    0.020678
    24  H    0.004996
    25  H   -0.020237
    26  H   -0.014148
    27  H    0.043479
    28  H    0.042694
    29  H    0.029771
    30  H    0.028742
    31  H   -0.017665
    32  H   -0.016690
    33  H    0.044061
    34  H    0.043996
    35  H    0.063937
    36  H    0.042775
    37  H    0.062486
    38  H    0.044344
    39  H    0.038186
    40  H    0.037203
    41  H    0.057570
    42  H    0.163160
    43  H    0.145284
    44  H    0.146405
    45  C   -0.045826
    46  H    0.031610
    47  H    0.032161
    48  C   -0.027837
    49  H    0.027230
    50  H    0.023354
    51  C   -0.048354
    52  H    0.026663
    53  H    0.031597
 Sum of ESP charges =   1.00000

                      1                      2                      3
                      A                      A                      A
 Frequencies --     17.1199                22.0740                35.0977
 Red. masses --      3.7489                 3.7910                 3.8426
 Frc consts  --      0.0006                 0.0011                 0.0028
 IR Inten    --      0.2605                 0.8618                 1.3580

                      4                      5                      6
                      A                      A                      A
 Frequencies --     37.1683                44.0711                49.9908
 Red. masses --      1.5801                 1.5697                 1.5978
 Frc consts  --      0.0013                 0.0018                 0.0024
 IR Inten    --      0.0044                 0.0047                 0.0001

                      7                      8                      9
                      A                      A                      A
 Frequencies --     65.1252                76.5062                90.9153
 Red. masses --      2.6914                 3.2425                 3.0117
 Frc consts  --      0.0067                 0.0112                 0.0147
 IR Inten    --      0.0009                 0.0413                 0.0017

                     10                     11                     12
                      A                      A                      A
 Frequencies --    106.2793               112.6035               122.5920
 Red. masses --      2.6635                 2.4449                 1.6942
 Frc consts  --      0.0177                 0.0183                 0.0150
 IR Inten    --      0.0578                 0.2211                 0.0102

                     13                     14                     15
                      A                      A                      A
 Frequencies --    128.5068               131.8702               141.6824
 Red. masses --      1.8252                 1.8343                 1.9522
 Frc consts  --      0.0178                 0.0188                 0.0231
 IR Inten    --      0.0081                 0.0002                 0.0003

                     16                     17                     18
                      A                      A                      A
 Frequencies --    154.2806               180.1458               184.3689
 Red. masses --      3.1243                 1.1697                 4.0404
 Frc consts  --      0.0438                 0.0224                 0.0809
 IR Inten    --      0.2144                 0.0097                 0.2064

                     19                     20                     21
                      A                      A                      A
 Frequencies --    200.2466               202.8806               219.1879
 Red. masses --      3.1657                 2.6149                 2.8836
 Frc consts  --      0.0748                 0.0634                 0.0816
 IR Inten    --      1.3485                 0.4655                 0.4266

                     22                     23                     24
                      A                      A                      A
 Frequencies --    239.9000               245.1380               245.8216
 Red. masses --      1.9293                 1.1267                 1.1203
 Frc consts  --      0.0654                 0.0399                 0.0399
 IR Inten    --      0.0107                 0.0007                 0.0005

                     25                     26                     27
                      A                      A                      A
 Frequencies --    246.2394               316.3026               327.9651
 Red. masses --      1.1644                 2.9688                 2.8117
 Frc consts  --      0.0416                 0.1750                 0.1782
 IR Inten    --      0.0000                 3.5584                 0.6107

                     28                     29                     30
                      A                      A                      A
 Frequencies --    348.4523               362.0096               386.3868
 Red. masses --      3.0125                 3.9889                 3.0964
 Frc consts  --      0.2155                 0.3080                 0.2724
 IR Inten    --      0.2609                 5.5603                 2.9367

                     31                     32                     33
                      A                      A                      A
 Frequencies --    451.7968               455.8566               461.1011
 Red. masses --      3.0770                 3.1565                 2.9657
 Frc consts  --      0.3701                 0.3865                 0.3715
 IR Inten    --      0.6955                 0.6236                 3.2299

                     34                     35                     36
                      A                      A                      A
 Frequencies --    666.2901               704.2511               724.6723
 Red. masses --      3.3793                 1.1707                 1.3313
 Frc consts  --      0.8839                 0.3421                 0.4119
 IR Inten    --      0.1144                 2.5463                 7.1893

                     37                     38                     39
                      A                      A                      A
 Frequencies --    728.8229               742.7173               744.1073
 Red. masses --      1.1278                 1.1008                 1.2491
 Frc consts  --      0.3530                 0.3578                 0.4075
 IR Inten    --      4.7345                 1.4435                 5.4179

                     40                     41                     42
                      A                      A                      A
 Frequencies --    748.8416               760.8610               769.6484
 Red. masses --      1.3744                 2.0542                 2.0066
 Frc consts  --      0.4541                 0.7006                 0.7003
 IR Inten    --      0.5220                 4.3677                 6.8246

                     43                     44                     45
                      A                      A                      A
 Frequencies --    806.1988               811.1840               840.3105
 Red. masses --      2.3217                 1.1983                 1.2641
 Frc consts  --      0.8891                 0.4646                 0.5259
 IR Inten    --      6.2440                 0.0219                 6.2729

                     46                     47                     48
                      A                      A                      A
 Frequencies --    842.4384               905.5257               907.7861
 Red. masses --      1.5735                 1.6541                 1.2969
 Frc consts  --      0.6580                 0.7991                 0.6297
 IR Inten    --     16.2217                 8.9652                20.3513

                     49                     50                     51
                      A                      A                      A
 Frequencies --    910.1824               910.7827               928.5760
 Red. masses --      1.8359                 1.8578                 1.7661
 Frc consts  --      0.8961                 0.9080                 0.8972
 IR Inten    --      1.7412                 1.3585                18.2969

                     52                     53                     54
                      A                      A                      A
 Frequencies --    957.0168               967.5388               975.8361
 Red. masses --      1.4150                 1.2575                 1.3361
 Frc consts  --      0.7636                 0.6936                 0.7496
 IR Inten    --      6.1729                 1.0113                17.5222

                     55                     56                     57
                      A                      A                      A
 Frequencies --    997.7634              1009.7839              1013.7506
 Red. masses --      3.1293                 3.4456                 3.7137
 Frc consts  --      1.8355                 2.0700                 2.2486
 IR Inten    --     32.1942                 1.9956                 0.8746

                     58                     59                     60
                      A                      A                      A
 Frequencies --   1034.0659              1036.8735              1038.8928
 Red. masses --      3.2049                 3.1000                 3.0626
 Frc consts  --      2.0191                 1.9636                 1.9475
 IR Inten    --      0.5352                 0.3490                 0.2841

                     61                     62                     63
                      A                      A                      A
 Frequencies --   1063.4043              1064.7119              1065.1975
 Red. masses --      2.2798                 2.4874                 2.4999
 Frc consts  --      1.5189                 1.6613                 1.6712
 IR Inten    --      0.0385                 0.0086                 1.2806

                     64                     65                     66
                      A                      A                      A
 Frequencies --   1075.8087              1096.1672              1102.7567
 Red. masses --      1.1811                 1.1889                 1.2532
 Frc consts  --      0.8054                 0.8417                 0.8979
 IR Inten    --      8.1651                 1.8983                16.7425

                     67                     68                     69
                      A                      A                      A
 Frequencies --   1120.7523              1125.8499              1129.3717
 Red. masses --      2.0584                 2.1829                 2.3123
 Frc consts  --      1.5234                 1.6302                 1.7377
 IR Inten    --     49.3340                17.2608                 1.6429

                     70                     71                     72
                      A                      A                      A
 Frequencies --   1220.2873              1222.3979              1223.7788
 Red. masses --      1.5949                 1.5572                 1.5432
 Frc consts  --      1.3993                 1.3709                 1.3617
 IR Inten    --      0.0101                 0.2564                 0.8829

                     73                     74                     75
                      A                      A                      A
 Frequencies --   1239.7061              1242.5987              1255.0240
 Red. masses --      1.3202                 1.3404                 1.2902
 Frc consts  --      1.1955                 1.2194                 1.1974
 IR Inten    --      2.9328                 9.5086                 1.6981

                     76                     77                     78
                      A                      A                      A
 Frequencies --   1286.0249              1289.2010              1292.8070
 Red. masses --      1.2449                 1.2405                 1.2400
 Frc consts  --      1.2131                 1.2148                 1.2211
 IR Inten    --      0.1008                 1.0005                 0.6148

                     79                     80                     81
                      A                      A                      A
 Frequencies --   1313.3497              1314.7116              1319.5813
 Red. masses --      1.3356                 1.3297                 1.3323
 Frc consts  --      1.3573                 1.3541                 1.3669
 IR Inten    --      7.4353                 2.2961                 3.1106

                     82                     83                     84
                      A                      A                      A
 Frequencies --   1336.0380              1337.0982              1337.8102
 Red. masses --      1.1194                 1.0979                 1.0872
 Frc consts  --      1.1772                 1.1565                 1.1465
 IR Inten    --      1.0748                 2.5946                 3.9741

                     85                     86                     87
                      A                      A                      A
 Frequencies --   1339.6629              1341.8366              1344.0202
 Red. masses --      1.0563                 1.0897                 1.0698
 Frc consts  --      1.1169                 1.1560                 1.1386
 IR Inten    --      0.0668                 1.3559                 0.1527

                     88                     89                     90
                      A                      A                      A
 Frequencies --   1353.9538              1374.7432              1376.3467
 Red. masses --      1.1932                 1.3786                 1.3816
 Frc consts  --      1.2888                 1.5350                 1.5420
 IR Inten    --     17.7352                 0.4078                 0.3469

                     91                     92                     93
                      A                      A                      A
 Frequencies --   1379.8157              1399.5945              1400.3089
 Red. masses --      1.3818                 1.5282                 1.5312
 Frc consts  --      1.5500                 1.7637                 1.7690
 IR Inten    --      1.4960                 0.2516                 0.2325

                     94                     95                     96
                      A                      A                      A
 Frequencies --   1401.4059              1421.3383              1421.4940
 Red. masses --      1.5303                 1.2290                 1.2298
 Frc consts  --      1.7707                 1.4629                 1.4641
 IR Inten    --      0.3564                 1.8555                 2.8699

                     97                     98                     99
                      A                      A                      A
 Frequencies --   1421.6893              1448.4863              1456.0913
 Red. masses --      1.2300                 1.0701                 1.0715
 Frc consts  --      1.4647                 1.3228                 1.3386
 IR Inten    --      4.2546                 0.6974                 5.3469

                    100                    101                    102
                      A                      A                      A
 Frequencies --   1459.0168              1462.7906              1467.5286
 Red. masses --      1.0784                 1.0518                 1.0563
 Frc consts  --      1.3526                 1.3260                 1.3403
 IR Inten    --      0.8047                 4.4455                31.8888

                    103                    104                    105
                      A                      A                      A
 Frequencies --   1486.6817              1488.4881              1489.4647
 Red. masses --      1.0722                 1.0694                 1.0683
 Frc consts  --      1.3962                 1.3960                 1.3964
 IR Inten    --      0.3788                 5.9663                 0.6798

                    106                    107                    108
                      A                      A                      A
 Frequencies --   1490.6421              1491.4939              1492.9100
 Red. masses --      1.0628                 1.0627                 1.0627
 Frc consts  --      1.3913                 1.3929                 1.3955
 IR Inten    --      2.3794                 0.7875                 0.3629

                    109                    110                    111
                      A                      A                      A
 Frequencies --   1500.5140              1501.9508              1501.9835
 Red. masses --      1.0726                 1.0389                 1.0431
 Frc consts  --      1.4229                 1.3808                 1.3864
 IR Inten    --      1.1809                 9.3549                 6.1037

                    112                    113                    114
                      A                      A                      A
 Frequencies --   1502.0523              1502.1195              1504.5545
 Red. masses --      1.0689                 1.0388                 1.0755
 Frc consts  --      1.4209                 1.3810                 1.4344
 IR Inten    --      9.2728                10.4164                 0.7646

                    115                    116                    117
                      A                      A                      A
 Frequencies --   1512.9216              1513.3614              1514.6292
 Red. masses --      1.0939                 1.0950                 1.0963
 Frc consts  --      1.4753                 1.4776                 1.4818
 IR Inten    --     31.9033                 0.5704                 1.3213

                    118                    119                    120
                      A                      A                      A
 Frequencies --   3006.1535              3006.2882              3006.5441
 Red. masses --      1.0579                 1.0578                 1.0579
 Frc consts  --      5.6327                 5.6329                 5.6343
 IR Inten    --      0.6322                 0.5630                 0.1735

                    121                    122                    123
                      A                      A                      A
 Frequencies --   3012.9308              3013.1788              3013.5201
 Red. masses --      1.0587                 1.0588                 1.0588
 Frc consts  --      5.6624                 5.6637                 5.6650
 IR Inten    --     15.6979                12.7587                24.9855

                    124                    125                    126
                      A                      A                      A
 Frequencies --   3024.2217              3024.7030              3025.9107
 Red. masses --      1.0580                 1.0577                 1.0571
 Frc consts  --      5.7014                 5.7011                 5.7027
 IR Inten    --     57.8416                 0.5251                14.5074

                    127                    128                    129
                      A                      A                      A
 Frequencies --   3027.9085              3028.2476              3028.4372
 Red. masses --      1.1009                 1.0957                 1.0945
 Frc consts  --      5.9469                 5.9202                 5.9142
 IR Inten    --      0.6703                 2.8923                 4.5567

                    130                    131                    132
                      A                      A                      A
 Frequencies --   3028.8458              3028.9170              3029.0315
 Red. masses --      1.0383                 1.0427                 1.0422
 Frc consts  --      5.6123                 5.6361                 5.6339
 IR Inten    --     57.0120                22.0975                33.9730

                    133                    134                    135
                      A                      A                      A
 Frequencies --   3038.3552              3041.4349              3044.6316
 Red. masses --      1.0601                 1.0594                 1.0783
 Frc consts  --      5.7662                 5.7741                 5.8892
 IR Inten    --      4.0277                10.4104                 4.7643

                    136                    137                    138
                      A                      A                      A
 Frequencies --   3045.4920              3046.4437              3047.9534
 Red. masses --      1.1035                 1.1026                 1.0830
 Frc consts  --      6.0304                 6.0293                 5.9280
 IR Inten    --      3.1922                 2.0911                20.6172

                    139                    140                    141
                      A                      A                      A
 Frequencies --   3053.4301              3064.4010              3066.2116
 Red. masses --      1.0343                 1.1059                 1.1051
 Frc consts  --      5.6815                 6.1187                 6.1214
 IR Inten    --      2.5539                12.1511                27.0638

                    142                    143                    144
                      A                      A                      A
 Frequencies --   3066.4868              3085.1045              3088.5882
 Red. masses --      1.1048                 1.1035                 1.1031
 Frc consts  --      6.1209                 6.1884                 6.2001
 IR Inten    --     44.5005                 1.5887                 0.0725

                    145                    146                    147
                      A                      A                      A
 Frequencies --   3089.8917              3090.2388              3090.6339
 Red. masses --      1.1031                 1.1028                 1.1028
 Frc consts  --      6.2052                 6.2049                 6.2064
 IR Inten    --     23.0227                12.1996               118.9844

                    148                    149                    150
                      A                      A                      A
 Frequencies --   3091.9093              3102.6394              3102.6640
 Red. masses --      1.1038                 1.1009                 1.1009
 Frc consts  --      6.2173                 6.2439                 6.2440
 IR Inten    --     23.4198                22.0709                26.2603

                    151                    152                    153
                      A                      A                      A
 Frequencies --   3102.7092              3137.5649              3141.8817
 Red. masses --      1.1009                 1.1035                 1.1031
 Frc consts  --      6.2442                 6.4005                 6.4158
 IR Inten    --     25.6280                 0.0581                 0.0034

 - Thermochemistry -
 -------------------
 Temperature   298.150 Kelvin.  Pressure   1.00000 Atm.
 Atom     1 has atomic number 15 and mass  30.97376

 Molecular mass:   259.25546 amu.
 Principal axes and moments of inertia in atomic units:
                           1         2         3
     Eigenvalues --  5104.78075********************
           X            0.81178  -0.58170   0.05139
           Y            0.20688   0.36877   0.90621
           Z            0.54609   0.72500  -0.41970
 This molecule is an asymmetric top.
 Rotational symmetry number  1.
 Warning -- assumption of classical behavior for rotation
           may cause significant error
 Rotational temperatures (Kelvin)      0.01697     0.00800     0.00589
 Rotational constants (GHZ):           0.35354     0.16665     0.12275
 Zero-point vibrational energy    1296011.7 (Joules/Mol)
                                  309.75422 (Kcal/Mol)
 Warning -- explicit consideration of  33 degrees of freedom as
           vibrations may cause significant error
 Vibrational temperatures:     24.63    31.76    50.50    53.48    63.41
          (Kelvin)             71.93    93.70   110.08   130.81   152.91
                              162.01   176.38   184.89   189.73   203.85
                              221.98   259.19   265.27   288.11   291.90
                              315.36   345.16   352.70   353.68   354.28
                              455.09   471.87   501.34   520.85   555.92
                              650.03   655.88   663.42   958.64  1013.26
                             1042.64  1048.61  1068.60  1070.60  1077.41
                             1094.71  1107.35  1159.94  1167.11  1209.02
                             1212.08  1302.85  1306.10  1309.55  1310.41
                             1336.01  1376.93  1392.07  1404.01  1435.56
                             1452.85  1458.56  1487.79  1491.83  1494.73
                             1530.00  1531.88  1532.58  1547.85  1577.14
                             1586.62  1612.51  1619.84  1624.91  1755.72
                             1758.76  1760.74  1783.66  1787.82  1805.70
                             1850.30  1854.87  1860.06  1889.61  1891.57
                             1898.58  1922.26  1923.78  1924.81  1927.47
                             1930.60  1933.74  1948.04  1977.95  1980.25
                             1985.24  2013.70  2014.73  2016.31  2044.99
                             2045.21  2045.49  2084.05  2094.99  2099.20
                             2104.63  2111.44  2139.00  2141.60  2143.00
                             2144.70  2145.92  2147.96  2158.90  2160.97
                             2161.02  2161.12  2161.21  2164.72  2176.75
                             2177.39  2179.21  4325.18  4325.37  4325.74
                             4334.93  4335.29  4335.78  4351.18  4351.87
                             4353.61  4356.48  4356.97  4357.24  4357.83
                             4357.93  4358.10  4371.51  4375.94  4380.54
                             4381.78  4383.15  4385.32  4393.20  4408.98
                             4411.59  4411.99  4438.77  4443.78  4445.66
                             4446.16  4446.73  4448.56  4464.00  4464.04
                             4464.10  4514.25  4520.46

 Zero-point correction=                           0.493625 (Hartree/Particle)
 Thermal correction to Energy=                    0.518585
 Thermal correction to Enthalpy=                  0.519529
 Thermal correction to Gibbs Free Energy=         0.435442
 Sum of electronic and zero-point Energies=           -972.378142
 Sum of electronic and thermal Energies=              -972.353182
 Sum of electronic and thermal Enthalpies=            -972.352238
 Sum of electronic and thermal Free Energies=         -972.436325

                     E (Thermal)             CV                S
                      KCal/Mol        Cal/Mol-Kelvin    Cal/Mol-Kelvin
 Total                  325.417             88.591            176.977
 Electronic               0.000              0.000              0.000
 Translational            0.889              2.981             42.558
 Rotational               0.889              2.981             35.051
 Vibrational            323.640             82.629             99.368
 Vibration     1          0.593              1.986              6.943
 Vibration     2          0.593              1.985              6.438
 Vibration     3          0.594              1.982              5.518
 Vibration     4          0.594              1.982              5.405
 Vibration     5          0.595              1.980              5.067
 Vibration     6          0.595              1.978              4.818
 Vibration     7          0.597              1.971              4.296
 Vibration     8          0.599              1.965              3.979
 Vibration     9          0.602              1.956              3.640
 Vibration    10          0.605              1.944              3.336
 Vibration    11          0.607              1.939              3.224
 Vibration    12          0.610              1.930              3.059
 Vibration    13          0.611              1.925              2.968
 Vibration    14          0.612              1.921              2.919
 Vibration    15          0.615              1.912              2.781
 Vibration    16          0.620              1.898              2.619
 Vibration    17          0.629              1.867              2.327
 Vibration    18          0.631              1.861              2.284
 Vibration    19          0.638              1.840              2.131
 Vibration    20          0.639              1.836              2.107
 Vibration    21          0.647              1.812              1.966
 Vibration    22          0.657              1.779              1.804
 Vibration    23          0.660              1.771              1.765
 Vibration    24          0.660              1.770              1.760
 Vibration    25          0.661              1.769              1.757
 Vibration    26          0.703              1.642              1.329
 Vibration    27          0.711              1.620              1.270
 Vibration    28          0.726              1.578              1.173
 Vibration    29          0.736              1.551              1.113
 Vibration    30          0.755              1.499              1.014
 Vibration    31          0.810              1.357              0.790
 Vibration    32          0.814              1.348              0.778
 Vibration    33          0.819              1.336              0.763

 Optimization completed.
    -- Stationary point found.
 Normal termination of Gaussian 09 at Mon Nov 30 20:29:49 2020.
