 Gaussian 09, Revision E.01,
 Gaussian 09:  ES64L-G09RevE.01 30-Nov-2015

 ----------------------------------------------------------------------
 # RMP2=(semidirect,full)/cc-pVTZ int=ultrafine symmetry=none scf=conve
 r=11 Density=current pop=(minimal,CHELPG,Dipole)
 ----------------------------------------------------------------------

 -------------------
 Title Card Required
 -------------------
 Symbolic Z-matrix:
 Charge =  1 Multiplicity = 1

                          Input orientation:
 ---------------------------------------------------------------------
 Center     Atomic      Atomic             Coordinates (Angstroms)
 Number     Number       Type             X           Y           Z
 ---------------------------------------------------------------------
      1         15           0       -0.511436    0.906292    2.193362
      2          6           0       -1.584046   -0.431401    1.584199
      3          6           0       -2.819871    0.047517    0.807770
      4          6           0       -4.908621   -0.678324   -0.464099
      5          6           0        0.819080    0.182074    3.201396
      6          6           0        1.737812    1.211029    3.877349
      7          6           0        3.769186    1.538551    5.384652
      8          6           0       -1.479818    2.081725    3.185308
      9          6           0       -2.148114    1.450503    4.415374
     10          6           0       -3.632757    1.874245    6.445987
     11          6           0       -4.437966    2.903455    7.240503
     12          6           0        4.873891    0.860551    6.196327
     13          6           0       -5.748202   -1.854102   -0.965708
     14          6           0        0.210479    1.788966    0.785005
     15          1           0       -1.879394   -1.022521    2.456356
     16          1           0       -0.957379   -1.079097    0.962226
     17          1           0       -2.513440    0.661810   -0.045325
     18          1           0       -3.437424    0.683770    1.449867
     19          1           0       -4.603635   -0.055376   -1.312880
     20          1           0       -5.520086   -0.039105    0.183338
     21          1           0        1.390200   -0.478866    2.541053
     22          1           0        0.338333   -0.457593    3.947704
     23          1           0        1.149731    1.855275    4.538831
     24          1           0        2.192035    1.862421    3.123455
     25          1           0        3.172454    2.182415    6.041188
     26          1           0        4.217217    2.197080    4.631572
     27          1           0       -2.225654    2.524393    2.518393
     28          1           0       -0.801558    2.888560    3.478337
     29          1           0       -2.810594    0.636498    4.102826
     30          1           0       -1.387662    1.005301    5.065520
     31          1           0       -4.290629    1.056115    6.130533
     32          1           0       -2.870355    1.424500    7.092591
     33          1           0       -3.798475    3.716197    7.596437
     34          1           0       -5.228723    3.345177    6.627485
     35          1           0       -4.909999    2.446093    8.112378
     36          1           0        4.454132    0.221185    6.978142
     37          1           0        5.516241    1.598962    6.680369
     38          1           0        5.506410    0.236502    5.558668
     39          1           0       -5.171270   -2.491551   -1.641688
     40          1           0       -6.094131   -2.475622   -0.134875
     41          1           0       -6.628867   -1.505453   -1.508873
     42          1           0        0.797608    1.098547    0.176969
     43          1           0        0.857290    2.590967    1.142603
     44          1           0       -0.582315    2.220626    0.172925
     45          6           0       -2.954975    2.479050    5.213746
     46          1           0       -3.714073    2.927873    4.562158
     47          1           0       -2.292909    3.295979    5.524421
     48          6           0       -3.663005   -1.128294    0.303843
     49          1           0       -3.963720   -1.749101    1.156211
     50          1           0       -3.046677   -1.766082   -0.340666
     51          6           0        2.846002    0.533864    4.690176
     52          1           0        3.437783   -0.110684    4.029604
     53          1           0        2.392916   -0.125209    5.440311
 ---------------------------------------------------------------------

 SCF Done:  E(RHF) =  -967.677410626     A.U. after   16 cycles
 E2 =    -0.3268070992D+01 EUMP2 =    -0.97094548161811D+03

 Alpha  occ. eigenvalues --  -80.16138 -11.39031 -11.38957 -11.38955 -11.38860
 Alpha  occ. eigenvalues --  -11.36325 -11.36293 -11.36292 -11.33216 -11.33152
 Alpha  occ. eigenvalues --  -11.33151 -11.31609 -11.31532 -11.31532 -11.29576
 Alpha  occ. eigenvalues --  -11.29500 -11.29499  -7.70037  -5.59558  -5.59545
 Alpha  occ. eigenvalues --   -5.59538  -1.25403  -1.21073  -1.20782  -1.17521
 Alpha  occ. eigenvalues --   -1.13575  -1.13499  -1.12553  -1.06613  -1.04518
 Alpha  occ. eigenvalues --   -1.03875  -0.96537  -0.95625  -0.94508  -0.90071
 Alpha  occ. eigenvalues --   -0.89794  -0.89725  -0.87211  -0.79666  -0.79592
 Alpha  occ. eigenvalues --   -0.78161  -0.75120  -0.74756  -0.73194  -0.72228
 Alpha  occ. eigenvalues --   -0.70901  -0.70794  -0.70009  -0.69900  -0.69391
 Alpha  occ. eigenvalues --   -0.68404  -0.68266  -0.66401  -0.65953  -0.65276
 Alpha  occ. eigenvalues --   -0.64303  -0.63684  -0.63665  -0.62621  -0.62071
 Alpha  occ. eigenvalues --   -0.60796  -0.60464  -0.60445  -0.60257  -0.57433
 Alpha  occ. eigenvalues --   -0.57169  -0.57130  -0.56678  -0.56516  -0.56442
 Alpha  occ. eigenvalues --   -0.56436  -0.55796  -0.54888
 Alpha virt. eigenvalues --   -0.00281   0.01683   0.01804   0.02798   0.03581
 Alpha virt. eigenvalues --    0.03848   0.05287   0.05395   0.05905   0.06519
 Alpha virt. eigenvalues --    0.07138   0.07693   0.08261   0.08801   0.09232

 Mulliken charges:
               1
     1  P    0.364875
     2  C   -0.297687
     3  C   -0.283408
     4  C   -0.232135
     5  C   -0.297580
     6  C   -0.283352
     7  C   -0.232137
     8  C   -0.317674
     9  C   -0.277289
    10  C   -0.232867
    11  C   -0.374833
    12  C   -0.374788
    13  C   -0.374797
    14  C   -0.418547
    15  H    0.180031
    16  H    0.186046
    17  H    0.151463
    18  H    0.149634
    19  H    0.128117
    20  H    0.127241
    21  H    0.186031
    22  H    0.179979
    23  H    0.149565
    24  H    0.151494
    25  H    0.127192
    26  H    0.128142
    27  H    0.191721
    28  H    0.191861
    29  H    0.151812
    30  H    0.152025
    31  H    0.127762
    32  H    0.127845
    33  H    0.125630
    34  H    0.125580
    35  H    0.145874
    36  H    0.125145
    37  H    0.145818
    38  H    0.126025
    39  H    0.125999
    40  H    0.125157
    41  H    0.145830
    42  H    0.178070
    43  H    0.182672
    44  H    0.182664
    45  C   -0.235328
    46  H    0.135313
    47  H    0.135440
    48  C   -0.233055
    49  H    0.134257
    50  H    0.135985
    51  C   -0.233093
    52  H    0.136035
    53  H    0.134235
 Sum of Mulliken charges =   1.00000

 Dipole moment (field-independent basis, Debye):
    X=             -3.4865    Y=              4.2989    Z=             12.0795  Tot=             13.2872
 Quadrupole moment (field-independent basis, Debye-Ang):
   XX=            -89.6277   YY=           -107.4927   ZZ=            -67.2344
   XY=             -0.5853   XZ=             -3.6330   YZ=             15.8719

 ESP charges:
               1
     1  P    0.496966
     2  C   -0.183176
     3  C    0.012932
     4  C    0.121683
     5  C   -0.168445
     6  C    0.034849
     7  C    0.128711
     8  C   -0.047970
     9  C   -0.040069
    10  C    0.127204
    11  C   -0.196133
    12  C   -0.193210
    13  C   -0.173458
    14  C   -0.393740
    15  H    0.070832
    16  H    0.093275
    17  H    0.018675
    18  H    0.032058
    19  H   -0.012846
    20  H   -0.017219
    21  H    0.088753
    22  H    0.063793
    23  H    0.026851
    24  H    0.010923
    25  H   -0.017489
    26  H   -0.011468
    27  H    0.041846
    28  H    0.041146
    29  H    0.038656
    30  H    0.037698
    31  H   -0.014679
    32  H   -0.013720
    33  H    0.049631
    34  H    0.049563
    35  H    0.069108
    36  H    0.048509
    37  H    0.067555
    38  H    0.050006
    39  H    0.044154
    40  H    0.043305
    41  H    0.062912
    42  H    0.167532
    43  H    0.147606
    44  H    0.148615
    45  C   -0.055540
    46  H    0.036889
    47  H    0.037435
    48  C   -0.039851
    49  H    0.032268
    50  H    0.028510
    51  C   -0.059617
    52  H    0.031622
    53  H    0.036558
 Sum of ESP charges =   1.00000

 Normal termination of Gaussian 09 at Sun Nov 29 22:19:38 2020.
